file 37262 1357825619                                           
version 2
run smallLooselyConnectedNetwork-0-20130110-14:46:29-5766
attr configname smallLooselyConnectedNetwork
attr datetime 20130110-14:46:29
attr experiment smallLooselyConnectedNetwork
attr inifile omnetpp.ini
attr iterationvars ""
attr iterationvars2 $repetition=0
attr measurement ""
attr network SimphonyDHTNetwork
attr processid 5766
attr repetition 0
attr replication #0
attr resultdir results
attr runnumber 0
attr seedset 0

vector 0  SimphonyDHTNetwork.members[3]  ""  ETV
vector 1  SimphonyDHTNetwork.members[4]  ""  ETV
vector 2  SimphonyDHTNetwork.members[2]  ""  ETV
vector 3  SimphonyDHTNetwork.members[1]  ""  ETV
vector 4  SimphonyDHTNetwork.members[0]  ""  ETV
vector 5  SimphonyDHTNetwork.members[7]  ""  ETV
vector 6  SimphonyDHTNetwork.members[8]  ""  ETV
vector 7  SimphonyDHTNetwork.members[6]  ""  ETV
vector 8  SimphonyDHTNetwork.members[5]  ""  ETV
vector 9  SimphonyDHTNetwork.members[9]  ""  ETV
vector 10  SimphonyDHTNetwork.members[10]  ""  ETV
vector 11  SimphonyDHTNetwork.members[11]  ""  ETV
vector 12  SimphonyDHTNetwork.members[12]  ""  ETV
vector 13  SimphonyDHTNetwork.members[13]  ""  ETV
vector 14  SimphonyDHTNetwork.members[14]  ""  ETV
vector 15  SimphonyDHTNetwork.members[15]  ""  ETV
0	1233 4016 2 1325 905.610484866703 2751.098724607605 148 0 114 8514 652056
1	5249 2437 3 1326 905.710484866703 2751.098724607605 90 1 68 3014 137374
2	7686 4210 6 1324 906.010484866703 2750.998724607605 156 0 117 9112 706878
3	11896 2497 10 1242 906.410484866703 2426.334974279965 94 0 69 3361 158887
4	14393 1479 14 1154 906.810484866703 2223.67592153564 56 0 41 1148 31892
5	15872 2401 18 1265 907.210484866703 2427.834974279965 90 0 67 3049 137685
6	18273 1653 28 1327 907.810484866703 2751.098724607605 62 3 56 1686 60994
7	19926 2393 31 1313 907.910484866703 2750.598724607605 89 0 68 3011 136823
8	22319 3251 47 1323 908.910484866703 2750.898724607605 120 0 89 5394 325358
9	25570 1582 93 933 1009.770064263933 2026.492176267182 59 0 43 1363 40067
10	27152 1251 155 1084 1110.381593006638 2218.77592153564 45 0 38 870 21966
11	28403 2373 247 1155 1204.851281637216 2422.934974279965 85 0 66 2851 125309
12	30776 1229 344 1266 1305.755191968829 2606.666802230071 44 0 37 837 20533
13	32005 2074 411 1201 1403.531591391375 2424.434974279965 74 0 56 2163 81543
14	34079 1971 503 1318 1522.235244220363 2750.898724607605 70 0 52 1887 65331
15	36050 1212 595 1316 1600.58384669093 2750.698724607605 44 0 38 842 20928
