version 2
run smallLooselyConnectedNetwork-0-20130110-14:46:29-5766
attr configname smallLooselyConnectedNetwork
attr datetime 20130110-14:46:29
attr experiment smallLooselyConnectedNetwork
attr inifile omnetpp.ini
attr iterationvars ""
attr iterationvars2 $repetition=0
attr measurement ""
attr network SimphonyDHTNetwork
attr processid 5766
attr repetition 0
attr replication #0
attr resultdir results
attr runnumber 0
attr seedset 0

vector 0  SimphonyDHTNetwork.members[3]  ""  ETV
vector 1  SimphonyDHTNetwork.members[4]  ""  ETV
vector 2  SimphonyDHTNetwork.members[2]  ""  ETV
vector 3  SimphonyDHTNetwork.members[1]  ""  ETV
vector 4  SimphonyDHTNetwork.members[0]  ""  ETV
vector 5  SimphonyDHTNetwork.members[7]  ""  ETV
vector 6  SimphonyDHTNetwork.members[8]  ""  ETV
vector 7  SimphonyDHTNetwork.members[6]  ""  ETV
vector 8  SimphonyDHTNetwork.members[5]  ""  ETV
vector 9  SimphonyDHTNetwork.members[9]  ""  ETV
vector 10  SimphonyDHTNetwork.members[10]  ""  ETV
vector 11  SimphonyDHTNetwork.members[11]  ""  ETV
vector 12  SimphonyDHTNetwork.members[12]  ""  ETV
vector 13  SimphonyDHTNetwork.members[13]  ""  ETV
vector 14  SimphonyDHTNetwork.members[14]  ""  ETV
vector 15  SimphonyDHTNetwork.members[15]  ""  ETV
0	2	905.610484866703	0
0	5	905.910484866703	1
0	7	906.110484866703	2
0	8	906.210484866703	2
0	23	907.710484866703	3
0	55	909.710484866703	4
0	58	910.010484866703	5
0	60	910.210484866703	6
0	61	910.310484866703	6
0	66	910.810484866703	7
0	102	1010.670064263933	8
0	107	1011.070064263933	9
0	109	1011.070064263933	10
0	114	1011.270064263933	11
0	115	1011.370064263933	11
0	119	1011.370064263933	12
0	121	1011.370064263933	12
0	124	1011.670064263933	13
0	127	1011.970064263933	14
0	129	1012.170064263933	15
0	130	1012.270064263933	15
0	140	1013.070064263933	16
0	142	1013.070064263933	17
0	145	1013.370064263933	18
0	147	1013.570064263933	19
0	148	1013.670064263933	19
0	153	1014.170064263933	20
0	186	1112.081593006638	21
0	214	1114.281593006638	22
0	237	1115.981593006638	23
0	260	1205.751281637216	24
0	266	1206.051281637216	25
0	268	1206.051281637216	26
0	273	1206.251281637216	27
0	274	1206.351281637216	27
0	278	1206.351281637216	28
0	280	1206.351281637216	28
0	283	1206.651281637216	29
0	285	1206.851281637216	30
0	286	1206.951281637216	30
0	311	1209.051281637216	31
0	313	1209.051281637216	32
0	321	1209.651281637216	33
0	324	1209.951281637216	34
0	326	1210.151281637216	35
0	327	1210.251281637216	35
0	342	1211.351281637216	36
0	413	1403.731591391375	38
0	414	1403.831591391375	38
0	434	1405.431591391375	39
0	457	1406.331591391375	39
0	460	1406.631591391375	40
0	462	1406.831591391375	41
0	463	1406.931591391375	41
0	468	1407.431591391375	42
0	508	1522.535244220363	43
0	565	1525.835244220363	44
0	576	1526.435244220363	45
0	579	1526.735244220363	46
0	581	1526.935244220363	47
0	582	1527.035244220363	47
0	592	1528.035244220363	48
0	600	1600.88384669093	49
0	603	1601.18384669093	50
0	605	1601.38384669093	51
0	606	1601.48384669093	51
0	611	1601.98384669093	52
0	680	1810.646505916187	53
0	700	1810.946505916187	54
0	715	1811.246505916187	55
0	726	1811.446505916187	56
0	730	1811.546505916187	56
0	739	1811.546505916187	57
0	755	1811.846505916187	58
0	759	1811.846505916187	59
0	771	1812.046505916187	60
0	773	1812.146505916187	60
0	777	1812.146505916187	61
0	794	1812.346505916187	62
0	795	1812.446505916187	62
0	812	1812.646505916187	63
0	813	1812.646505916187	64
0	861	1813.246505916187	65
0	868	1813.346505916187	66
0	883	1813.646505916187	67
0	891	1813.846505916187	68
0	898	1813.946505916187	68
0	916	1814.446505916187	69
0	935	2026.492176267182	70
0	942	2026.692176267182	71
0	944	2026.792176267182	71
0	984	2027.692176267182	72
0	994	2027.992176267182	73
0	1002	2028.192176267182	74
0	1003	2028.192176267182	74
0	1005	2028.292176267182	75
0	1015	2028.392176267182	76
0	1018	2028.492176267182	76
0	1033	2028.892176267182	77
0	1036	2028.992176267182	78
0	1039	2029.092176267182	79
0	1046	2029.192176267182	80
0	1047	2029.192176267182	80
0	1048	2029.292176267182	81
0	1051	2029.392176267182	81
0	1055	2029.492176267182	81
0	1066	2029.792176267182	82
0	1069	2029.992176267182	83
0	1073	2030.092176267182	83
0	1082	2030.592176267182	84
0	1094	2219.37592153564	85
0	1097	2219.67592153564	86
0	1099	2219.87592153564	87
0	1100	2219.97592153564	87
0	1110	2220.77592153564	88
0	1122	2221.37592153564	89
0	1125	2221.67592153564	90
0	1127	2221.87592153564	91
0	1128	2221.97592153564	91
0	1133	2222.47592153564	92
0	1145	2223.07592153564	93
0	1148	2223.37592153564	94
0	1150	2223.57592153564	95
0	1151	2223.67592153564	95
0	1166	2423.234974279965	96
0	1219	2425.034974279965	97
0	1220	2425.034974279965	98
0	1225	2425.334974279965	99
0	1226	2425.334974279965	100
0	1229	2425.534974279965	101
0	1230	2425.534974279965	101
0	1231	2425.634974279965	101
0	1232	2425.634974279965	102
0	1244	2426.434974279965	103
0	1255	2427.034974279965	104
0	1257	2427.234974279965	105
0	1258	2427.334974279965	105
0	1263	2427.834974279965	106
0	1269	2748.998724607605	108
0	1270	2749.098724607605	108
0	1275	2749.398724607605	109
0	1279	2749.398724607605	109
0	1298	2749.998724607605	110
0	1304	2750.298724607605	111
0	1306	2750.298724607605	112
0	1309	2750.498724607605	113
0	1310	2750.598724607605	113
0	1325	2751.098724607605	114
1	3	905.710484866703	1
1	4	905.810484866703	1
1	24	907.810484866703	2
1	51	909.310484866703	2
1	54	909.610484866703	3
1	56	909.810484866703	4
1	57	909.910484866703	4
1	67	910.910484866703	5
1	98	1010.270064263933	6
1	101	1010.570064263933	7
1	103	1010.770064263933	8
1	104	1010.870064263933	8
1	108	1011.070064263933	9
1	112	1011.070064263933	10
1	116	1011.370064263933	10
1	120	1011.370064263933	11
1	160	1110.881593006638	11
1	164	1111.181593006638	12
1	166	1111.181593006638	13
1	170	1111.181593006638	14
1	172	1111.481593006638	14
1	176	1111.481593006638	15
1	178	1111.481593006638	15
1	181	1111.781593006638	16
1	183	1111.781593006638	17
1	184	1112.081593006638	17
1	204	1113.681593006638	18
1	206	1113.681593006638	19
1	209	1113.981593006638	20
1	211	1113.981593006638	21
1	212	1114.281593006638	21
1	227	1115.381593006638	22
1	229	1115.381593006638	23
1	232	1115.681593006638	24
1	234	1115.681593006638	25
1	235	1115.981593006638	25
1	245	1116.581593006638	26
1	252	1205.151281637216	27
1	255	1205.451281637216	28
1	257	1205.451281637216	29
1	258	1205.751281637216	29
1	263	1206.051281637216	30
1	383	1308.055191968829	31
1	860	1813.246505916187	32
1	874	1813.546505916187	33
1	878	1813.546505916187	34
1	889	1813.846505916187	34
1	904	1814.146505916187	35
1	983	2027.692176267182	36
1	993	2027.992176267182	37
1	996	2027.992176267182	38
1	1004	2028.292176267182	38
1	1021	2028.592176267182	39
1	1025	2028.592176267182	40
1	1031	2028.892176267182	40
1	1057	2029.492176267182	41
1	1158	2422.934974279965	42
1	1164	2423.234974279965	43
1	1168	2423.234974279965	44
1	1170	2423.534974279965	44
1	1190	2424.134974279965	45
1	1191	2424.134974279965	46
1	1194	2424.134974279965	47
1	1211	2424.734974279965	48
1	1212	2424.734974279965	49
1	1217	2425.034974279965	50
1	1218	2425.034974279965	51
1	1221	2425.034974279965	52
1	1222	2425.034974279965	52
1	1223	2425.334974279965	52
1	1224	2425.334974279965	53
1	1233	2425.634974279965	54
1	1245	2426.434974279965	55
1	1252	2426.734974279965	56
1	1272	2749.098724607605	57
1	1276	2749.398724607605	58
1	1278	2749.398724607605	59
1	1282	2749.398724607605	60
1	1284	2749.698724607605	60
1	1288	2749.698724607605	61
1	1290	2749.698724607605	61
1	1296	2749.998724607605	62
1	1299	2749.998724607605	63
1	1300	2749.998724607605	64
1	1302	2750.298724607605	64
1	1305	2750.298724607605	65
1	1307	2750.298724607605	66
1	1311	2750.598724607605	66
1	1319	2750.898724607605	67
1	1326	2751.098724607605	68
2	6	906.010484866703	0
2	9	906.310484866703	1
2	11	906.510484866703	2
2	12	906.610484866703	2
2	22	907.610484866703	3
2	59	910.110484866703	4
2	62	910.410484866703	5
2	64	910.610484866703	6
2	65	910.710484866703	6
2	75	911.510484866703	7
2	77	911.710484866703	8
2	78	911.810484866703	8
2	83	912.310484866703	9
2	113	1011.170064263933	10
2	128	1012.070064263933	11
2	131	1012.370064263933	12
2	133	1012.570064263933	13
2	134	1012.670064263933	13
2	139	1012.970064263933	14
2	146	1013.470064263933	15
2	149	1013.770064263933	16
2	151	1013.970064263933	17
2	152	1014.070064263933	17
2	189	1112.381593006638	18
2	191	1112.581593006638	19
2	192	1112.681593006638	19
2	202	1113.681593006638	20
2	217	1114.581593006638	21
2	219	1114.781593006638	22
2	220	1114.881593006638	22
2	225	1115.381593006638	23
2	240	1116.281593006638	24
2	242	1116.481593006638	25
2	243	1116.581593006638	25
2	272	1206.151281637216	26
2	284	1206.751281637216	27
2	287	1207.051281637216	28
2	289	1207.251281637216	29
2	290	1207.351281637216	29
2	310	1208.951281637216	30
2	325	1210.051281637216	31
2	328	1210.351281637216	32
2	330	1210.551281637216	33
2	331	1210.651281637216	33
2	341	1211.251281637216	34
2	386	1308.355191968829	35
2	388	1308.555191968829	36
2	389	1308.655191968829	36
2	412	1403.631591391375	37
2	415	1403.931591391375	38
2	417	1404.131591391375	39
2	418	1404.231591391375	39
2	433	1405.331591391375	40
2	461	1406.731591391375	41
2	464	1407.031591391375	42
2	466	1407.231591391375	43
2	467	1407.331591391375	43
2	475	1407.731591391375	44
2	477	1407.931591391375	45
2	478	1408.031591391375	45
2	488	1408.631591391375	46
2	493	1408.931591391375	47
2	495	1409.131591391375	48
2	496	1409.231591391375	48
2	501	1409.531591391375	49
2	580	1526.835244220363	50
2	583	1527.135244220363	51
2	585	1527.335244220363	52
2	586	1527.435244220363	52
2	591	1527.935244220363	53
2	604	1601.28384669093	54
2	607	1601.58384669093	55
2	609	1601.78384669093	56
2	610	1601.88384669093	56
2	615	1601.98384669093	57
2	621	1601.98384669093	58
2	623	1602.28384669093	58
2	627	1602.28384669093	59
2	639	1603.18384669093	59
2	641	1603.18384669093	60
2	642	1603.48384669093	60
2	647	1603.78384669093	61
2	649	1603.78384669093	62
2	650	1604.08384669093	62
2	653	1810.346505916187	63
2	663	1810.346505916187	64
2	668	1810.646505916187	64
2	678	1810.646505916187	65
2	687	1810.946505916187	65
2	725	1811.346505916187	66
2	746	1811.646505916187	67
2	748	1811.646505916187	68
2	766	1811.946505916187	68
2	767	1811.946505916187	69
2	783	1812.146505916187	70
2	785	1812.146505916187	71
2	787	1812.246505916187	71
2	788	1812.246505916187	72
2	792	1812.246505916187	73
2	797	1812.446505916187	73
2	808	1812.546505916187	74
2	811	1812.546505916187	75
2	887	1813.646505916187	76
2	888	1813.746505916187	76
2	893	1813.846505916187	77
2	897	1813.846505916187	78
2	899	1814.046505916187	78
2	901	1814.046505916187	79
2	903	1814.146505916187	79
2	913	1814.346505916187	80
2	931	1814.746505916187	81
2	941	2026.592176267182	82
2	952	2026.892176267182	83
2	954	2026.892176267182	84
2	963	2027.192176267182	84
2	998	2028.092176267182	85
2	1001	2028.092176267182	86
2	1006	2028.292176267182	87
2	1014	2028.392176267182	88
2	1017	2028.392176267182	89
2	1020	2028.592176267182	89
2	1024	2028.592176267182	90
2	1026	2028.692176267182	90
2	1030	2028.892176267182	91
2	1037	2028.992176267182	92
2	1038	2029.092176267182	93
2	1049	2029.292176267182	94
2	1067	2029.892176267182	95
2	1074	2030.192176267182	96
2	1076	2030.192176267182	97
2	1081	2030.492176267182	97
2	1098	2219.77592153564	98
2	1101	2220.07592153564	99
2	1103	2220.07592153564	100
2	1104	2220.37592153564	100
2	1109	2220.67592153564	101
2	1126	2221.77592153564	102
2	1129	2222.07592153564	103
2	1131	2222.07592153564	104
2	1132	2222.37592153564	104
2	1149	2223.47592153564	105
2	1227	2425.434974279965	106
2	1228	2425.434974279965	107
2	1235	2425.734974279965	108
2	1237	2425.734974279965	109
2	1238	2426.034974279965	109
2	1243	2426.334974279965	110
2	1256	2427.134974279965	111
2	1259	2427.434974279965	112
2	1261	2427.434974279965	113
2	1262	2427.734974279965	113
2	1268	2748.898724607605	114
2	1308	2750.398724607605	115
2	1315	2750.698724607605	116
2	1317	2750.698724607605	117
2	1324	2750.998724607605	117
3	10	906.410484866703	0
3	13	906.710484866703	1
3	15	906.910484866703	2
3	16	907.010484866703	2
3	21	907.510484866703	3
3	63	910.510484866703	4
3	76	911.610484866703	5
3	79	911.910484866703	6
3	81	912.110484866703	7
3	82	912.210484866703	7
3	88	912.610484866703	8
3	90	912.810484866703	9
3	91	912.910484866703	9
3	132	1012.470064263933	10
3	150	1013.870064263933	11
3	190	1112.481593006638	12
3	193	1112.781593006638	13
3	195	1112.981593006638	14
3	196	1113.081593006638	14
3	201	1113.581593006638	15
3	218	1114.681593006638	16
3	221	1114.981593006638	17
3	223	1115.181593006638	18
3	224	1115.281593006638	18
3	241	1116.381593006638	19
3	288	1207.151281637216	20
3	329	1210.451281637216	21
3	348	1306.155191968829	22
3	350	1306.355191968829	23
3	351	1306.455191968829	23
3	354	1306.555191968829	24
3	360	1306.555191968829	25
3	362	1306.855191968829	25
3	366	1306.855191968829	26
3	370	1307.155191968829	26
3	372	1307.155191968829	27
3	373	1307.455191968829	27
3	387	1308.455191968829	28
3	416	1404.031591391375	29
3	465	1407.131591391375	30
3	476	1407.831591391375	31
3	494	1409.031591391375	32
3	584	1527.235244220363	33
3	587	1527.535244220363	34
3	589	1527.535244220363	35
3	590	1527.835244220363	35
3	608	1601.68384669093	36
3	614	1601.98384669093	37
3	616	1601.98384669093	38
3	620	1601.98384669093	39
3	622	1602.28384669093	39
3	626	1602.28384669093	40
3	628	1602.28384669093	40
3	631	1602.58384669093	41
3	633	1602.58384669093	42
3	634	1602.88384669093	42
3	636	1602.88384669093	43
3	644	1603.48384669093	44
3	654	1810.346505916187	45
3	664	1810.346505916187	46
3	669	1810.646505916187	46
3	697	1810.946505916187	47
3	712	1811.246505916187	48
3	721	1811.246505916187	49
3	727	1811.546505916187	49
3	763	1811.846505916187	50
3	765	1811.846505916187	51
3	769	1811.946505916187	51
3	775	1812.146505916187	52
3	779	1812.146505916187	53
3	789	1812.246505916187	54
3	793	1812.246505916187	55
3	799	1812.446505916187	55
3	805	1812.446505916187	56
3	809	1812.546505916187	56
3	826	1812.746505916187	57
3	907	1814.146505916187	58
3	917	1814.446505916187	59
3	923	1814.446505916187	60
3	926	1814.446505916187	60
3	927	1814.746505916187	60
3	1027	2028.692176267182	61
3	1029	2028.692176267182	62
3	1035	2028.992176267182	62
3	1052	2029.392176267182	63
3	1054	2029.392176267182	64
3	1061	2029.692176267182	64
3	1079	2030.292176267182	65
3	1105	2220.37592153564	66
3	1107	2220.37592153564	67
3	1108	2220.67592153564	67
3	1239	2426.034974279965	68
3	1241	2426.034974279965	69
3	1242	2426.334974279965	69
4	14	906.810484866703	0
4	17	907.110484866703	1
4	19	907.310484866703	2
4	20	907.410484866703	2
4	26	907.810484866703	3
4	30	907.810484866703	4
4	34	908.110484866703	4
4	38	908.110484866703	5
4	80	912.010484866703	5
4	89	912.710484866703	6
4	194	1112.881593006638	7
4	197	1113.181593006638	8
4	199	1113.181593006638	9
4	200	1113.481593006638	9
4	222	1115.081593006638	10
4	346	1305.755191968829	12
4	347	1306.055191968829	12
4	349	1306.255191968829	13
4	352	1306.555191968829	14
4	353	1306.555191968829	14
4	355	1306.555191968829	15
4	359	1306.555191968829	16
4	361	1306.855191968829	16
4	365	1306.855191968829	17
4	367	1306.855191968829	17
4	375	1307.455191968829	18
4	378	1307.755191968829	19
4	380	1307.755191968829	20
4	381	1308.055191968829	20
4	391	1308.655191968829	21
4	393	1308.655191968829	22
4	396	1308.955191968829	23
4	398	1308.955191968829	24
4	399	1309.255191968829	24
4	409	1309.855191968829	25
4	679	1810.646505916187	26
4	736	1811.546505916187	27
4	753	1811.846505916187	28
4	760	1811.846505916187	29
4	772	1812.146505916187	29
4	780	1812.146505916187	30
4	800	1812.446505916187	31
4	806	1812.446505916187	32
4	827	1812.746505916187	32
4	886	1813.646505916187	33
4	1063	2029.692176267182	34
4	1085	2218.77592153564	35
4	1087	2218.77592153564	36
4	1088	2219.07592153564	36
4	1113	2220.77592153564	37
4	1115	2220.77592153564	38
4	1116	2221.07592153564	38
4	1136	2222.47592153564	39
4	1138	2222.47592153564	40
4	1139	2222.77592153564	40
4	1154	2223.67592153564	41
5	18	907.210484866703	0
5	25	907.810484866703	1
5	27	907.810484866703	2
5	32	908.010484866703	3
5	33	908.110484866703	3
5	37	908.110484866703	4
5	39	908.110484866703	4
5	42	908.410484866703	5
5	44	908.610484866703	6
5	45	908.710484866703	6
5	70	911.210484866703	7
5	72	911.210484866703	8
5	85	912.310484866703	9
5	136	1012.670064263933	10
5	292	1207.351281637216	11
5	295	1207.651281637216	12
5	297	1207.851281637216	13
5	298	1207.951281637216	13
5	308	1208.951281637216	14
5	333	1210.651281637216	15
5	336	1210.951281637216	16
5	338	1211.151281637216	17
5	339	1211.251281637216	17
5	401	1309.255191968829	18
5	404	1309.555191968829	19
5	406	1309.755191968829	20
5	407	1309.855191968829	20
5	420	1404.231591391375	21
5	423	1404.531591391375	22
5	425	1404.731591391375	23
5	426	1404.831591391375	23
5	431	1405.331591391375	24
5	480	1408.031591391375	25
5	483	1408.331591391375	26
5	485	1408.531591391375	27
5	486	1408.631591391375	27
5	498	1409.231591391375	28
5	511	1522.835244220363	29
5	513	1523.035244220363	30
5	514	1523.135244220363	30
5	518	1523.135244220363	31
5	524	1523.135244220363	32
5	526	1523.435244220363	32
5	530	1523.435244220363	33
5	543	1524.335244220363	33
5	597	1600.58384669093	35
5	598	1600.88384669093	35
5	613	1601.98384669093	36
5	693	1810.946505916187	36
5	694	1810.946505916187	37
5	703	1810.946505916187	38
5	704	1810.946505916187	38
5	708	1811.246505916187	38
5	709	1811.246505916187	39
5	734	1811.546505916187	40
5	757	1811.846505916187	41
5	758	1811.846505916187	42
5	803	1812.446505916187	43
5	830	1812.746505916187	44
5	836	1812.746505916187	45
5	847	1813.046505916187	45
5	885	1813.646505916187	46
5	1070	2029.992176267182	47
5	1072	2029.992176267182	48
5	1077	2030.292176267182	48
5	1086	2218.77592153564	49
5	1089	2219.07592153564	50
5	1091	2219.07592153564	51
5	1092	2219.37592153564	51
5	1112	2220.77592153564	52
5	1114	2220.77592153564	53
5	1117	2221.07592153564	54
5	1119	2221.07592153564	55
5	1120	2221.37592153564	55
5	1135	2222.47592153564	56
5	1137	2222.47592153564	57
5	1140	2222.77592153564	58
5	1142	2222.77592153564	59
5	1143	2223.07592153564	59
5	1153	2223.67592153564	60
5	1157	2422.934974279965	61
5	1161	2422.934974279965	62
5	1163	2423.234974279965	62
5	1204	2424.434974279965	63
5	1206	2424.434974279965	64
5	1208	2424.734974279965	64
5	1247	2426.434974279965	65
5	1249	2426.434974279965	66
5	1250	2426.734974279965	66
5	1265	2427.834974279965	67
6	28	907.810484866703	3
6	29	907.810484866703	4
6	35	908.110484866703	4
6	36	908.110484866703	4
6	40	908.110484866703	7
6	41	908.410484866703	7
6	71	911.210484866703	8
6	73	911.210484866703	9
6	74	911.510484866703	9
6	84	912.310484866703	10
6	86	912.310484866703	11
6	87	912.610484866703	11
6	92	912.910484866703	12
6	135	1012.670064263933	12
6	137	1012.670064263933	13
6	138	1012.970064263933	13
6	198	1113.181593006638	14
6	291	1207.351281637216	15
6	293	1207.351281637216	16
6	294	1207.651281637216	16
6	309	1208.951281637216	17
6	332	1210.651281637216	18
6	334	1210.651281637216	19
6	335	1210.951281637216	19
6	340	1211.251281637216	20
6	345	1305.755191968829	21
6	356	1306.555191968829	22
6	379	1307.755191968829	23
6	397	1308.955191968829	24
6	400	1309.255191968829	25
6	402	1309.255191968829	26
6	403	1309.555191968829	26
6	408	1309.855191968829	27
6	419	1404.231591391375	28
6	421	1404.231591391375	29
6	422	1404.531591391375	29
6	432	1405.331591391375	30
6	479	1408.031591391375	31
6	481	1408.031591391375	32
6	482	1408.331591391375	32
6	487	1408.631591391375	33
6	497	1409.231591391375	34
6	499	1409.231591391375	35
6	500	1409.531591391375	35
6	542	1524.335244220363	36
6	544	1524.335244220363	37
6	545	1524.635244220363	37
6	652	1810.346505916187	38
6	1267	2748.798724607605	43
6	1280	2749.398724607605	46
6	1281	2749.398724607605	47
6	1286	2749.698724607605	47
6	1287	2749.698724607605	47
6	1291	2749.698724607605	50
6	1292	2749.698724607605	51
6	1294	2749.998724607605	51
6	1297	2749.998724607605	52
6	1301	2749.998724607605	53
6	1303	2750.298724607605	53
6	1320	2750.898724607605	54
6	1322	2750.898724607605	55
6	1327	2751.098724607605	56
7	31	907.910484866703	0
7	43	908.510484866703	1
7	46	908.810484866703	2
7	48	909.010484866703	3
7	49	909.110484866703	3
7	69	911.110484866703	4
7	95	1009.970064263933	6
7	96	1010.070064263933	6
7	106	1011.070064263933	7
7	157	1110.581593006638	8
7	158	1110.681593006638	8
7	163	1111.181593006638	9
7	296	1207.751281637216	9
7	299	1208.051281637216	10
7	301	1208.251281637216	11
7	302	1208.351281637216	11
7	307	1208.851281637216	12
7	337	1211.051281637216	13
7	405	1309.655191968829	14
7	424	1404.631591391375	15
7	427	1404.931591391375	16
7	429	1405.131591391375	17
7	430	1405.231591391375	17
7	436	1405.431591391375	18
7	442	1405.431591391375	19
7	444	1405.731591391375	19
7	448	1405.731591391375	20
7	484	1408.431591391375	20
7	512	1522.935244220363	21
7	517	1523.135244220363	22
7	519	1523.135244220363	23
7	523	1523.135244220363	24
7	525	1523.435244220363	24
7	529	1523.435244220363	25
7	531	1523.435244220363	25
7	534	1523.735244220363	26
7	536	1523.735244220363	27
7	537	1524.035244220363	27
7	547	1524.635244220363	28
7	549	1524.635244220363	29
7	552	1524.935244220363	30
7	554	1524.935244220363	31
7	555	1525.235244220363	31
7	570	1526.135244220363	32
7	572	1526.135244220363	33
7	662	1810.346505916187	34
7	677	1810.646505916187	35
7	686	1810.646505916187	36
7	691	1810.946505916187	36
7	718	1811.246505916187	37
7	719	1811.246505916187	38
7	733	1811.546505916187	39
7	741	1811.546505916187	40
7	750	1811.846505916187	40
7	820	1812.646505916187	41
7	824	1812.646505916187	42
7	834	1812.746505916187	43
7	853	1813.046505916187	44
7	867	1813.346505916187	45
7	871	1813.346505916187	46
7	879	1813.546505916187	46
7	882	1813.646505916187	47
7	918	1814.446505916187	48
7	924	1814.446505916187	49
7	928	1814.746505916187	49
7	937	2026.492176267182	50
7	946	2026.792176267182	51
7	950	2026.792176267182	52
7	955	2027.092176267182	52
7	964	2027.192176267182	53
7	966	2027.192176267182	54
7	975	2027.492176267182	54
7	1000	2028.092176267182	55
7	1010	2028.292176267182	56
7	1012	2028.292176267182	57
7	1059	2029.492176267182	58
7	1167	2423.234974279965	59
7	1173	2423.534974279965	60
7	1174	2423.534974279965	61
7	1177	2423.534974279965	62
7	1179	2423.834974279965	62
7	1180	2423.834974279965	63
7	1184	2423.834974279965	64
7	1186	2424.134974279965	64
7	1199	2424.434974279965	65
7	1200	2424.434974279965	66
7	1203	2424.434974279965	67
7	1207	2424.734974279965	67
7	1313	2750.598724607605	68
8	47	908.910484866703	0
8	50	909.210484866703	1
8	52	909.410484866703	2
8	53	909.510484866703	2
8	68	911.010484866703	3
8	94	1009.870064263933	4
8	97	1010.170064263933	5
8	99	1010.370064263933	6
8	100	1010.470064263933	6
8	105	1010.970064263933	7
8	156	1110.481593006638	8
8	159	1110.781593006638	9
8	161	1110.981593006638	10
8	162	1111.081593006638	10
8	165	1111.181593006638	11
8	171	1111.181593006638	12
8	173	1111.481593006638	12
8	177	1111.481593006638	13
8	249	1204.851281637216	14
8	250	1205.151281637216	14
8	265	1206.051281637216	15
8	300	1208.151281637216	15
8	303	1208.451281637216	16
8	305	1208.451281637216	17
8	306	1208.751281637216	17
8	428	1405.031591391375	18
8	435	1405.431591391375	19
8	437	1405.431591391375	20
8	441	1405.431591391375	21
8	443	1405.731591391375	21
8	447	1405.731591391375	22
8	449	1405.731591391375	22
8	452	1406.031591391375	23
8	454	1406.031591391375	24
8	455	1406.331591391375	24
8	470	1407.431591391375	25
8	472	1407.431591391375	26
8	490	1408.631591391375	27
8	505	1522.235244220363	29
8	506	1522.535244220363	29
8	516	1523.135244220363	30
8	539	1524.035244220363	30
8	557	1525.235244220363	31
8	560	1525.535244220363	32
8	562	1525.535244220363	33
8	563	1525.835244220363	33
8	568	1526.135244220363	34
8	661	1810.346505916187	35
8	676	1810.646505916187	36
8	685	1810.646505916187	37
8	690	1810.946505916187	37
8	701	1810.946505916187	38
8	716	1811.246505916187	39
8	724	1811.246505916187	40
8	731	1811.546505916187	40
8	816	1812.646505916187	41
8	817	1812.646505916187	42
8	821	1812.646505916187	43
8	832	1812.746505916187	44
8	840	1812.946505916187	45
8	844	1812.946505916187	46
8	849	1813.046505916187	46
8	854	1813.046505916187	47
8	856	1813.246505916187	47
8	864	1813.346505916187	48
8	908	1814.146505916187	49
8	911	1814.146505916187	50
8	922	1814.446505916187	51
8	938	2026.492176267182	52
8	947	2026.792176267182	53
8	951	2026.792176267182	54
8	956	2027.092176267182	54
8	959	2027.092176267182	55
8	960	2027.092176267182	56
8	969	2027.392176267182	57
8	970	2027.392176267182	58
8	973	2027.392176267182	59
8	974	2027.392176267182	59
8	977	2027.492176267182	59
8	979	2027.692176267182	60
8	980	2027.692176267182	61
8	988	2027.792176267182	62
8	990	2027.792176267182	63
8	997	2028.092176267182	63
8	1008	2028.292176267182	64
8	1041	2029.092176267182	65
8	1043	2029.092176267182	66
8	1156	2422.934974279965	67
8	1160	2422.934974279965	68
8	1162	2423.234974279965	68
8	1183	2423.834974279965	69
8	1189	2424.134974279965	70
8	1192	2424.134974279965	71
8	1193	2424.134974279965	72
8	1195	2424.134974279965	72
8	1196	2424.434974279965	72
8	1197	2424.434974279965	73
8	1209	2424.734974279965	74
8	1210	2424.734974279965	75
8	1213	2424.734974279965	76
8	1214	2424.734974279965	76
8	1215	2425.034974279965	76
8	1216	2425.034974279965	77
8	1234	2425.634974279965	78
8	1246	2426.434974279965	78
8	1251	2426.734974279965	79
8	1253	2426.734974279965	80
8	1254	2427.034974279965	80
8	1264	2427.834974279965	81
8	1271	2749.098724607605	82
8	1273	2749.098724607605	83
8	1274	2749.398724607605	83
8	1277	2749.398724607605	84
8	1283	2749.398724607605	85
8	1285	2749.698724607605	85
8	1289	2749.698724607605	86
8	1293	2749.698724607605	87
8	1295	2749.998724607605	87
8	1321	2750.898724607605	88
8	1323	2750.898724607605	89
9	93	1009.770064263933	0
9	110	1011.070064263933	3
9	111	1011.070064263933	4
9	117	1011.370064263933	4
9	118	1011.370064263933	4
9	122	1011.370064263933	7
9	123	1011.670064263933	7
9	125	1011.670064263933	8
9	126	1011.970064263933	8
9	141	1013.070064263933	9
9	143	1013.070064263933	10
9	144	1013.370064263933	10
9	154	1014.170064263933	11
9	167	1111.181593006638	11
9	182	1111.781593006638	12
9	185	1112.081593006638	13
9	187	1112.081593006638	14
9	188	1112.381593006638	14
9	203	1113.681593006638	15
9	210	1113.981593006638	16
9	213	1114.281593006638	17
9	215	1114.281593006638	18
9	216	1114.581593006638	18
9	226	1115.381593006638	19
9	233	1115.681593006638	20
9	236	1115.981593006638	21
9	238	1115.981593006638	22
9	239	1116.281593006638	22
9	244	1116.581593006638	23
9	256	1205.451281637216	24
9	259	1205.751281637216	25
9	261	1205.751281637216	26
9	262	1206.051281637216	26
9	267	1206.051281637216	27
9	271	1206.051281637216	28
9	275	1206.351281637216	28
9	279	1206.351281637216	29
9	316	1209.351281637216	29
9	318	1209.351281637216	30
9	319	1209.651281637216	30
9	655	1810.346505916187	31
9	665	1810.346505916187	32
9	670	1810.646505916187	32
9	742	1811.546505916187	33
9	745	1811.546505916187	34
9	752	1811.846505916187	34
9	801	1812.446505916187	35
9	807	1812.446505916187	36
9	828	1812.746505916187	36
9	841	1812.946505916187	37
9	845	1812.946505916187	38
9	851	1813.046505916187	38
9	857	1813.246505916187	38
9	875	1813.546505916187	39
9	876	1813.546505916187	40
9	892	1813.846505916187	41
9	896	1813.846505916187	42
9	902	1814.146505916187	42
9	933	2026.492176267182	43
10	155	1110.381593006638	0
10	168	1111.181593006638	3
10	169	1111.181593006638	4
10	174	1111.481593006638	4
10	175	1111.481593006638	4
10	179	1111.481593006638	7
10	180	1111.781593006638	7
10	205	1113.681593006638	8
10	207	1113.681593006638	9
10	208	1113.981593006638	9
10	228	1115.381593006638	10
10	230	1115.381593006638	11
10	231	1115.681593006638	11
10	246	1116.581593006638	12
10	248	1204.851281637216	12
10	251	1205.151281637216	13
10	253	1205.151281637216	14
10	254	1205.451281637216	14
10	264	1206.051281637216	15
10	304	1208.451281637216	16
10	382	1308.055191968829	17
10	384	1308.055191968829	18
10	385	1308.355191968829	18
10	390	1308.655191968829	19
10	438	1405.431591391375	20
10	453	1406.031591391375	21
10	504	1522.235244220363	22
10	561	1525.535244220363	23
10	681	1810.646505916187	24
10	720	1811.246505916187	25
10	842	1812.946505916187	26
10	852	1813.046505916187	27
10	858	1813.246505916187	28
10	862	1813.246505916187	29
10	872	1813.546505916187	29
10	906	1814.146505916187	30
10	949	2026.792176267182	31
10	971	2027.392176267182	32
10	972	2027.392176267182	33
10	981	2027.692176267182	34
10	985	2027.692176267182	35
10	989	2027.792176267182	35
10	991	2027.992176267182	36
10	1007	2028.292176267182	37
10	1084	2218.77592153564	38
11	247	1204.851281637216	0
11	269	1206.051281637216	3
11	270	1206.051281637216	4
11	276	1206.351281637216	4
11	277	1206.351281637216	4
11	281	1206.351281637216	7
11	282	1206.651281637216	7
11	312	1209.051281637216	8
11	314	1209.051281637216	9
11	315	1209.351281637216	9
11	317	1209.351281637216	10
11	320	1209.651281637216	11
11	322	1209.651281637216	12
11	323	1209.951281637216	12
11	343	1211.351281637216	13
11	456	1406.331591391375	13
11	458	1406.331591391375	14
11	459	1406.631591391375	14
11	469	1407.431591391375	15
11	507	1522.535244220363	16
11	509	1522.535244220363	17
11	510	1522.835244220363	17
11	515	1523.135244220363	18
11	564	1525.835244220363	19
11	566	1525.835244220363	20
11	567	1526.135244220363	20
11	575	1526.435244220363	21
11	577	1526.435244220363	22
11	578	1526.735244220363	22
11	593	1528.035244220363	23
11	599	1600.88384669093	24
11	601	1600.88384669093	25
11	602	1601.18384669093	25
11	612	1601.98384669093	26
11	660	1810.346505916187	27
11	675	1810.646505916187	28
11	684	1810.646505916187	29
11	689	1810.946505916187	29
11	695	1810.946505916187	30
11	705	1810.946505916187	31
11	710	1811.246505916187	31
11	735	1811.546505916187	32
11	738	1811.546505916187	33
11	743	1811.546505916187	34
11	744	1811.546505916187	34
11	751	1811.846505916187	35
11	756	1811.846505916187	36
11	762	1811.846505916187	37
11	774	1812.146505916187	37
11	798	1812.446505916187	38
11	804	1812.446505916187	39
11	814	1812.646505916187	40
11	815	1812.646505916187	41
11	843	1812.946505916187	42
11	859	1813.246505916187	43
11	863	1813.246505916187	44
11	866	1813.346505916187	44