version 2
run allAtOnce-71-20130122-19:51:37-3549
attr configname allAtOnce
attr datetime 20130122-19:51:37
attr experiment allAtOnce
attr inifile omnetpp.ini
attr iterationvars "$0=256, $1=intuniform(10, 20)"
attr iterationvars2 "$0=256, $1=intuniform(10, 20), $repetition=11"
attr measurement "$0=256, $1=intuniform(10, 20)"
attr network SimphonyDHTNetwork
attr processid 3549
attr repetition 11
attr replication #11
attr resultdir results
attr runnumber 71
attr seedset 71

vector 0  SimphonyDHTNetwork.members[57]  ""  ETV
vector 1  SimphonyDHTNetwork.members[58]  ""  ETV
vector 2  SimphonyDHTNetwork.members[48]  ""  ETV
vector 3  SimphonyDHTNetwork.members[47]  ""  ETV
vector 4  SimphonyDHTNetwork.members[38]  ""  ETV
vector 5  SimphonyDHTNetwork.members[37]  ""  ETV
vector 6  SimphonyDHTNetwork.members[36]  ""  ETV
vector 7  SimphonyDHTNetwork.members[35]  ""  ETV
vector 8  SimphonyDHTNetwork.members[34]  ""  ETV
vector 9  SimphonyDHTNetwork.members[33]  ""  ETV
vector 10  SimphonyDHTNetwork.members[64]  ""  ETV
vector 11  SimphonyDHTNetwork.members[32]  ""  ETV
vector 12  SimphonyDHTNetwork.members[23]  ""  ETV
vector 13  SimphonyDHTNetwork.members[22]  ""  ETV
vector 14  SimphonyDHTNetwork.members[13]  ""  ETV
vector 15  SimphonyDHTNetwork.members[12]  ""  ETV
vector 16  SimphonyDHTNetwork.members[4]  ""  ETV
vector 17  SimphonyDHTNetwork.members[3]  ""  ETV
vector 18  SimphonyDHTNetwork.members[2]  ""  ETV
vector 19  SimphonyDHTNetwork.members[1]  ""  ETV
vector 20  SimphonyDHTNetwork.members[0]  ""  ETV
vector 21  SimphonyDHTNetwork.members[63]  ""  ETV
vector 22  SimphonyDHTNetwork.members[62]  ""  ETV
vector 23  SimphonyDHTNetwork.members[53]  ""  ETV
vector 24  SimphonyDHTNetwork.members[52]  ""  ETV
vector 25  SimphonyDHTNetwork.members[44]  ""  ETV
vector 26  SimphonyDHTNetwork.members[43]  ""  ETV
vector 27  SimphonyDHTNetwork.members[65]  ""  ETV
vector 28  SimphonyDHTNetwork.members[9]  ""  ETV
vector 29  SimphonyDHTNetwork.members[10]  ""  ETV
vector 30  SimphonyDHTNetwork.members[20]  ""  ETV
vector 31  SimphonyDHTNetwork.members[19]  ""  ETV
vector 32  SimphonyDHTNetwork.members[18]  ""  ETV
vector 33  SimphonyDHTNetwork.members[8]  ""  ETV
vector 34  SimphonyDHTNetwork.members[42]  ""  ETV
vector 35  SimphonyDHTNetwork.members[31]  ""  ETV
vector 36  SimphonyDHTNetwork.members[17]  ""  ETV
vector 37  SimphonyDHTNetwork.members[16]  ""  ETV
vector 38  SimphonyDHTNetwork.members[15]  ""  ETV
vector 39  SimphonyDHTNetwork.members[14]  ""  ETV
vector 40  SimphonyDHTNetwork.members[66]  ""  ETV
vector 41  SimphonyDHTNetwork.members[11]  ""  ETV
vector 42  SimphonyDHTNetwork.members[21]  ""  ETV
vector 43  SimphonyDHTNetwork.members[67]  ""  ETV
vector 44  SimphonyDHTNetwork.members[27]  ""  ETV
vector 45  SimphonyDHTNetwork.members[28]  ""  ETV
vector 46  SimphonyDHTNetwork.members[24]  ""  ETV
vector 47  SimphonyDHTNetwork.members[6]  ""  ETV
vector 48  SimphonyDHTNetwork.members[5]  ""  ETV
vector 49  SimphonyDHTNetwork.members[54]  ""  ETV
vector 50  SimphonyDHTNetwork.members[68]  ""  ETV
vector 51  SimphonyDHTNetwork.members[51]  ""  ETV
vector 52  SimphonyDHTNetwork.members[50]  ""  ETV
vector 53  SimphonyDHTNetwork.members[49]  ""  ETV
vector 54  SimphonyDHTNetwork.members[7]  ""  ETV
vector 55  SimphonyDHTNetwork.members[69]  ""  ETV
vector 56  SimphonyDHTNetwork.members[25]  ""  ETV
vector 57  SimphonyDHTNetwork.members[41]  ""  ETV
vector 58  SimphonyDHTNetwork.members[40]  ""  ETV
vector 59  SimphonyDHTNetwork.members[39]  ""  ETV
vector 60  SimphonyDHTNetwork.members[70]  ""  ETV
vector 61  SimphonyDHTNetwork.members[61]  ""  ETV
vector 62  SimphonyDHTNetwork.members[60]  ""  ETV
vector 63  SimphonyDHTNetwork.members[30]  ""  ETV
vector 64  SimphonyDHTNetwork.members[29]  ""  ETV
vector 65  SimphonyDHTNetwork.members[26]  ""  ETV
vector 66  SimphonyDHTNetwork.members[71]  ""  ETV
vector 67  SimphonyDHTNetwork.members[72]  ""  ETV
vector 68  SimphonyDHTNetwork.members[46]  ""  ETV
vector 69  SimphonyDHTNetwork.members[45]  ""  ETV
vector 70  SimphonyDHTNetwork.members[73]  ""  ETV
vector 71  SimphonyDHTNetwork.members[59]  ""  ETV
vector 72  SimphonyDHTNetwork.members[74]  ""  ETV
vector 73  SimphonyDHTNetwork.members[75]  ""  ETV
vector 74  SimphonyDHTNetwork.members[76]  ""  ETV
vector 75  SimphonyDHTNetwork.members[77]  ""  ETV
vector 76  SimphonyDHTNetwork.members[78]  ""  ETV
vector 77  SimphonyDHTNetwork.members[79]  ""  ETV
vector 78  SimphonyDHTNetwork.members[80]  ""  ETV
vector 79  SimphonyDHTNetwork.members[81]  ""  ETV
vector 80  SimphonyDHTNetwork.members[82]  ""  ETV
vector 81  SimphonyDHTNetwork.members[83]  ""  ETV
vector 82  SimphonyDHTNetwork.members[84]  ""  ETV
vector 83  SimphonyDHTNetwork.members[85]  ""  ETV
vector 84  SimphonyDHTNetwork.members[86]  ""  ETV
vector 85  SimphonyDHTNetwork.members[87]  ""  ETV
vector 86  SimphonyDHTNetwork.members[88]  ""  ETV
vector 87  SimphonyDHTNetwork.members[89]  ""  ETV
vector 88  SimphonyDHTNetwork.members[90]  ""  ETV
vector 89  SimphonyDHTNetwork.members[91]  ""  ETV
vector 90  SimphonyDHTNetwork.members[92]  ""  ETV
vector 91  SimphonyDHTNetwork.members[93]  ""  ETV
vector 92  SimphonyDHTNetwork.members[94]  ""  ETV
vector 93  SimphonyDHTNetwork.members[95]  ""  ETV
vector 94  SimphonyDHTNetwork.members[96]  ""  ETV
vector 95  SimphonyDHTNetwork.members[97]  ""  ETV
vector 96  SimphonyDHTNetwork.members[98]  ""  ETV
vector 97  SimphonyDHTNetwork.members[56]  ""  ETV
vector 98  SimphonyDHTNetwork.members[55]  ""  ETV
vector 99  SimphonyDHTNetwork.members[99]  ""  ETV
vector 100  SimphonyDHTNetwork.members[100]  ""  ETV
vector 101  SimphonyDHTNetwork.members[101]  ""  ETV
vector 102  SimphonyDHTNetwork.members[102]  ""  ETV
vector 103  SimphonyDHTNetwork.members[103]  ""  ETV
vector 104  SimphonyDHTNetwork.members[104]  ""  ETV
vector 105  SimphonyDHTNetwork.members[105]  ""  ETV
vector 106  SimphonyDHTNetwork.members[106]  ""  ETV
vector 107  SimphonyDHTNetwork.members[107]  ""  ETV
vector 108  SimphonyDHTNetwork.members[108]  ""  ETV
vector 109  SimphonyDHTNetwork.members[109]  ""  ETV
vector 110  SimphonyDHTNetwork.members[110]  ""  ETV
vector 111  SimphonyDHTNetwork.members[111]  ""  ETV
vector 112  SimphonyDHTNetwork.members[112]  ""  ETV
vector 113  SimphonyDHTNetwork.members[113]  ""  ETV
vector 114  SimphonyDHTNetwork.members[114]  ""  ETV
vector 115  SimphonyDHTNetwork.members[115]  ""  ETV
vector 116  SimphonyDHTNetwork.members[116]  ""  ETV
vector 117  SimphonyDHTNetwork.members[117]  ""  ETV
vector 118  SimphonyDHTNetwork.members[118]  ""  ETV
vector 119  SimphonyDHTNetwork.members[119]  ""  ETV
vector 120  SimphonyDHTNetwork.members[120]  ""  ETV
vector 121  SimphonyDHTNetwork.members[121]  ""  ETV
vector 122  SimphonyDHTNetwork.members[122]  ""  ETV
vector 123  SimphonyDHTNetwork.members[123]  ""  ETV
vector 124  SimphonyDHTNetwork.members[124]  ""  ETV
vector 125  SimphonyDHTNetwork.members[125]  ""  ETV
vector 126  SimphonyDHTNetwork.members[126]  ""  ETV
vector 127  SimphonyDHTNetwork.members[127]  ""  ETV
vector 128  SimphonyDHTNetwork.members[128]  ""  ETV
vector 129  SimphonyDHTNetwork.members[129]  ""  ETV
vector 130  SimphonyDHTNetwork.members[130]  ""  ETV
vector 131  SimphonyDHTNetwork.members[131]  ""  ETV
vector 132  SimphonyDHTNetwork.members[132]  ""  ETV
vector 133  SimphonyDHTNetwork.members[133]  ""  ETV
vector 134  SimphonyDHTNetwork.members[134]  ""  ETV
vector 135  SimphonyDHTNetwork.members[135]  ""  ETV
vector 136  SimphonyDHTNetwork.members[136]  ""  ETV
vector 137  SimphonyDHTNetwork.members[137]  ""  ETV
vector 138  SimphonyDHTNetwork.members[138]  ""  ETV
vector 139  SimphonyDHTNetwork.members[139]  ""  ETV
vector 140  SimphonyDHTNetwork.members[140]  ""  ETV
vector 141  SimphonyDHTNetwork.members[141]  ""  ETV
vector 142  SimphonyDHTNetwork.members[142]  ""  ETV
vector 143  SimphonyDHTNetwork.members[143]  ""  ETV
vector 144  SimphonyDHTNetwork.members[144]  ""  ETV
vector 145  SimphonyDHTNetwork.members[145]  ""  ETV
vector 146  SimphonyDHTNetwork.members[146]  ""  ETV
vector 147  SimphonyDHTNetwork.members[147]  ""  ETV
vector 148  SimphonyDHTNetwork.members[148]  ""  ETV
vector 149  SimphonyDHTNetwork.members[149]  ""  ETV
vector 150  SimphonyDHTNetwork.members[150]  ""  ETV
vector 151  SimphonyDHTNetwork.members[151]  ""  ETV
vector 152  SimphonyDHTNetwork.members[152]  ""  ETV
vector 153  SimphonyDHTNetwork.members[153]  ""  ETV
vector 154  SimphonyDHTNetwork.members[154]  ""  ETV
vector 155  SimphonyDHTNetwork.members[155]  ""  ETV
vector 156  SimphonyDHTNetwork.members[156]  ""  ETV
vector 157  SimphonyDHTNetwork.members[157]  ""  ETV
vector 158  SimphonyDHTNetwork.members[158]  ""  ETV
vector 159  SimphonyDHTNetwork.members[159]  ""  ETV
vector 160  SimphonyDHTNetwork.members[160]  ""  ETV
vector 161  SimphonyDHTNetwork.members[161]  ""  ETV
vector 162  SimphonyDHTNetwork.members[162]  ""  ETV
vector 163  SimphonyDHTNetwork.members[163]  ""  ETV
vector 164  SimphonyDHTNetwork.members[164]  ""  ETV
vector 165  SimphonyDHTNetwork.members[165]  ""  ETV
vector 166  SimphonyDHTNetwork.members[166]  ""  ETV
vector 167  SimphonyDHTNetwork.members[167]  ""  ETV
vector 168  SimphonyDHTNetwork.members[168]  ""  ETV
vector 169  SimphonyDHTNetwork.members[169]  ""  ETV
vector 170  SimphonyDHTNetwork.members[170]  ""  ETV
vector 171  SimphonyDHTNetwork.members[171]  ""  ETV
vector 172  SimphonyDHTNetwork.members[172]  ""  ETV
vector 173  SimphonyDHTNetwork.members[173]  ""  ETV
vector 174  SimphonyDHTNetwork.members[174]  ""  ETV
vector 175  SimphonyDHTNetwork.members[175]  ""  ETV
vector 176  SimphonyDHTNetwork.members[176]  ""  ETV
vector 177  SimphonyDHTNetwork.members[177]  ""  ETV
vector 178  SimphonyDHTNetwork.members[178]  ""  ETV
vector 179  SimphonyDHTNetwork.members[179]  ""  ETV
vector 180  SimphonyDHTNetwork.members[180]  ""  ETV
vector 181  SimphonyDHTNetwork.members[181]  ""  ETV
vector 182  SimphonyDHTNetwork.members[182]  ""  ETV
vector 183  SimphonyDHTNetwork.members[183]  ""  ETV
vector 184  SimphonyDHTNetwork.members[184]  ""  ETV
vector 185  SimphonyDHTNetwork.members[185]  ""  ETV
vector 186  SimphonyDHTNetwork.members[186]  ""  ETV
vector 187  SimphonyDHTNetwork.members[187]  ""  ETV
vector 188  SimphonyDHTNetwork.members[188]  ""  ETV
vector 189  SimphonyDHTNetwork.members[189]  ""  ETV
vector 190  SimphonyDHTNetwork.members[190]  ""  ETV
vector 191  SimphonyDHTNetwork.members[191]  ""  ETV
vector 192  SimphonyDHTNetwork.members[192]  ""  ETV
vector 193  SimphonyDHTNetwork.members[193]  ""  ETV
vector 194  SimphonyDHTNetwork.members[194]  ""  ETV
vector 195  SimphonyDHTNetwork.members[195]  ""  ETV
vector 196  SimphonyDHTNetwork.members[196]  ""  ETV
vector 197  SimphonyDHTNetwork.members[197]  ""  ETV
vector 198  SimphonyDHTNetwork.members[198]  ""  ETV
vector 199  SimphonyDHTNetwork.members[199]  ""  ETV
vector 200  SimphonyDHTNetwork.members[200]  ""  ETV
vector 201  SimphonyDHTNetwork.members[201]  ""  ETV
vector 202  SimphonyDHTNetwork.members[202]  ""  ETV
vector 203  SimphonyDHTNetwork.members[203]  ""  ETV
vector 204  SimphonyDHTNetwork.members[204]  ""  ETV
vector 205  SimphonyDHTNetwork.members[205]  ""  ETV
vector 206  SimphonyDHTNetwork.members[206]  ""  ETV
vector 207  SimphonyDHTNetwork.members[207]  ""  ETV
vector 208  SimphonyDHTNetwork.members[208]  ""  ETV
vector 209  SimphonyDHTNetwork.members[209]  ""  ETV
vector 210  SimphonyDHTNetwork.members[210]  ""  ETV
vector 211  SimphonyDHTNetwork.members[211]  ""  ETV
vector 212  SimphonyDHTNetwork.members[212]  ""  ETV
vector 213  SimphonyDHTNetwork.members[213]  ""  ETV
vector 214  SimphonyDHTNetwork.members[214]  ""  ETV
vector 215  SimphonyDHTNetwork.members[215]  ""  ETV
vector 216  SimphonyDHTNetwork.members[216]  ""  ETV
vector 217  SimphonyDHTNetwork.members[217]  ""  ETV
vector 218  SimphonyDHTNetwork.members[218]  ""  ETV
vector 219  SimphonyDHTNetwork.members[219]  ""  ETV
vector 220  SimphonyDHTNetwork.members[220]  ""  ETV
vector 221  SimphonyDHTNetwork.members[221]  ""  ETV
vector 222  SimphonyDHTNetwork.members[222]  ""  ETV
vector 223  SimphonyDHTNetwork.members[223]  ""  ETV
vector 224  SimphonyDHTNetwork.members[224]  ""  ETV
vector 225  SimphonyDHTNetwork.members[225]  ""  ETV
vector 226  SimphonyDHTNetwork.members[226]  ""  ETV
vector 227  SimphonyDHTNetwork.members[227]  ""  ETV
vector 228  SimphonyDHTNetwork.members[228]  ""  ETV
vector 229  SimphonyDHTNetwork.members[229]  ""  ETV
vector 230  SimphonyDHTNetwork.members[230]  ""  ETV
vector 231  SimphonyDHTNetwork.members[231]  ""  ETV
vector 232  SimphonyDHTNetwork.members[232]  ""  ETV
vector 233  SimphonyDHTNetwork.members[233]  ""  ETV
vector 234  SimphonyDHTNetwork.members[234]  ""  ETV
vector 235  SimphonyDHTNetwork.members[235]  ""  ETV
vector 236  SimphonyDHTNetwork.members[236]  ""  ETV
vector 237  SimphonyDHTNetwork.members[237]  ""  ETV
vector 238  SimphonyDHTNetwork.members[238]  ""  ETV
vector 239  SimphonyDHTNetwork.members[239]  ""  ETV
vector 240  SimphonyDHTNetwork.members[240]  ""  ETV
vector 241  SimphonyDHTNetwork.members[241]  ""  ETV
vector 242  SimphonyDHTNetwork.members[242]  ""  ETV
vector 243  SimphonyDHTNetwork.members[243]  ""  ETV
vector 244  SimphonyDHTNetwork.members[244]  ""  ETV
vector 245  SimphonyDHTNetwork.members[245]  ""  ETV
vector 246  SimphonyDHTNetwork.members[246]  ""  ETV
vector 247  SimphonyDHTNetwork.members[247]  ""  ETV
vector 248  SimphonyDHTNetwork.members[248]  ""  ETV
vector 249  SimphonyDHTNetwork.members[249]  ""  ETV
vector 250  SimphonyDHTNetwork.members[250]  ""  ETV
vector 251  SimphonyDHTNetwork.members[251]  ""  ETV
vector 252  SimphonyDHTNetwork.members[252]  ""  ETV
vector 253  SimphonyDHTNetwork.members[253]  ""  ETV
vector 254  SimphonyDHTNetwork.members[254]  ""  ETV
vector 255  SimphonyDHTNetwork.members[255]  ""  ETV
0	2	6513.1	0
0	5835	9919.5	1
0	5838	9919.8	2
0	5840	9920	3
0	5841	9920.1	3
0	5861	9922.1	4
0	10127	12119.1	5
0	10130	12119.4	6
0	10132	12119.6	7
0	10133	12119.7	7
0	10153	12121.7	8
0	11728	12823.3	9
0	11762	12824.1	10
0	14155	13716.1	11
0	14884	14127.3	12
0	14887	14127.6	13
0	14889	14127.8	14
0	14890	14127.9	14
0	14925	14130.8	15
0	15279	14322	16
0	15282	14322.3	17
0	15284	14322.5	18
0	15285	14322.6	18
0	15295	14323.6	19
0	16504	14714.2	21
0	16505	14714.3	21
0	16580	14719.8	22
0	17057	14818.4	22
0	17060	14818.7	23
0	17062	14818.9	24
0	17063	14819	24
0	17067	14819.1	25
0	17071	14819.1	26
0	17075	14819.4	26
0	17079	14819.4	27
0	17875	15120.4	27
0	17881	15120.7	28
0	17882	15120.7	29
0	17884	15120.7	30
0	17887	15121	30
0	17888	15121	31
0	17892	15121	32
0	17894	15121.3	32
0	17934	15122.7	33
0	18005	15124.7	34
0	19171	15614.5	35
0	19174	15614.8	36
0	19176	15614.8	37
0	19177	15615.1	37
0	19187	15615.7	38
0	20351	16014.4	39
0	20353	16014.4	40
0	20354	16014.7	40
0	20429	16019.4	41
0	22150	16521.9	42
0	22153	16522.2	43
0	22155	16522.2	44
0	22156	16522.5	44
0	22166	16523.1	45
0	22531	16725.4	46
0	22799	16923.8	47
0	22802	16924.1	48
0	22804	16924.1	49
0	22805	16924.4	49
0	22830	16924.6	50
0	22836	16924.6	51
0	22838	16924.9	51
0	22842	16924.9	52
0	22846	16924.9	53
0	22848	16925.2	53
0	22950	16928.7	54
0	22952	16928.7	55
0	22957	16929	55
0	22960	16929.2	56
0	22967	16929.5	57
0	22971	16929.5	58
0	22986	16929.8	58
0	23130	16934.6	59
0	23259	16943	59
0	24621	17517.2	60
0	24644	17517.5	61
0	24646	17517.5	62
0	24650	17517.5	63
0	24652	17517.8	63
0	24656	17517.8	64
0	24658	17517.8	65
0	24661	17517.8	66
0	24663	17518.1	66
0	24664	17518.1	67
0	24668	17518.1	68
0	24670	17518.4	68
0	24765	17521.6	69
0	24767	17521.6	70
0	24772	17521.9	70
0	24797	17522.3	71
0	24799	17522.3	72
0	24806	17522.6	73
0	24808	17522.6	74
0	24813	17522.9	74
0	24821	17523.1	75
0	24823	17523.1	76
0	24828	17523.4	76
0	24837	17523.7	77
0	24881	17526.2	77
0	24883	17526.2	78
0	26003	17931.9	79
0	26006	17932.2	80
0	26008	17932.2	81
0	26009	17932.5	81
0	26039	17934.3	82
0	27776	18610.6	83
0	27779	18610.9	84
0	27781	18610.9	85
0	27782	18611.2	85
0	27877	18617.1	86
0	31592	19817.4	87
0	31611	19818	88
0	31620	19818.3	89
0	31731	19822.2	90
0	31737	19822.5	91
0	31741	19822.5	92
0	31743	19822.8	92
0	31782	19823.7	93
0	31903	19827.9	94
0	31931	19828.4	95
0	34172	20518.8	96
0	34179	20519.1	97
0	34181	20519.1	98
0	34186	20519.4	98
0	34244	20520.7	99
0	34251	20521	100
0	34253	20521	101
0	34258	20521.3	101
0	34393	20526	102
0	34479	20528.2	103
0	37425	21523.4	104
0	37431	21523.7	105
0	37435	21523.7	106
0	37437	21524	106
0	37623	21530.2	107
0	39515	22215.4	108
0	39518	22215.7	109
0	39520	22215.7	110
0	39521	22216	110
0	39691	22226.4	111
0	40096	22318.8	112
0	40099	22319.1	113
0	40101	22319.1	114
0	40102	22319.4	114
0	40157	22322.7	115
0	42003	22917	117
0	42004	22917.3	117
0	42009	22917.6	118
0	42163	23022.5	118
0	42166	23022.8	119
0	42168	23022.8	120
0	42169	23023.1	120
0	42184	23024	121
0	42330	23033.2	122
0	42516	23126	123
0	42549	23126.3	124
0	42551	23126.3	125
0	42555	23126.3	126
0	42557	23126.6	126
0	42561	23126.6	127
0	42563	23126.6	127
0	42566	23126.9	128
0	42568	23126.9	129
0	42569	23127.2	129
0	42634	23131.1	130
0	42636	23131.1	131
0	42639	23131.4	132
0	42641	23131.4	133
0	42642	23131.7	133
0	42707	23135.6	134
0	42709	23135.6	135
0	42712	23135.9	136
0	42714	23135.9	137
0	42715	23136.2	137
0	42855	23144.8	138
0	44620	23823	139
0	44639	23823.3	140
0	44641	23823.3	141
0	44646	23823.6	141
0	44664	23824.2	142
0	49693	25420.1	143
0	49706	25420.4	144
0	49709	25420.4	145
0	49712	25420.7	145
0	49717	25420.7	146
0	49723	25421	147
0	49727	25421	148
0	49729	25421.3	148
0	49742	25421.6	149
0	49942	25428.2	150
0	50242	25616.6	151
0	50245	25616.9	152
0	50247	25616.9	153
0	50248	25617.2	153
0	50308	25620.8	154
1	3	6513.2	1
1	4	6513.3	1
1	34	6516.3	2
1	1265	7418.1	2
1	4963	9420.9	3
1	4975	9421.5	4
1	5033	9425.9	5
1	5091	9431.1	6
1	5831	9919.1	7
1	5834	9919.4	8
1	5836	9919.6	9
1	5837	9919.7	9
1	5862	9922.2	10
1	8685	11320.5	11
1	8697	11321.1	12
1	8793	11329.3	13
1	9107	11616.1	14
1	9834	12013.2	15
1	10119	12118.7	16
1	10126	12119	17
1	10128	12119.2	18
1	10129	12119.3	18
1	10154	12121.8	19
1	10807	12420.8	20
1	10981	12521.3	21
1	11103	12526.2	22
1	11720	12822.9	23
1	11726	12823.2	24
1	11732	12823.4	25
1	11733	12823.5	25
1	11760	12824	26
1	11770	12824.2	27
1	11771	12824.3	27
1	11881	12828.3	28
1	13036	13225.2	29
1	14156	13716.2	31
1	14157	13716.3	31
1	14182	13718.6	32
1	14252	13723.2	32
1	14586	13921.7	33
1	14788	14120.1	34
1	14880	14126.9	35
1	14883	14127.2	36
1	14885	14127.4	37
1	14886	14127.5	37
1	14926	14130.9	38
1	15275	14321.6	39
1	15278	14321.9	40
1	15280	14322.1	41
1	15281	14322.2	41
1	15296	14323.7	42
1	15518	14414.9	43
1	16849	14725.9	44
1	16858	14726.1	45
1	17056	14818.3	46
1	17058	14818.5	47
1	17059	14818.6	47
1	17064	14819.1	48
1	17412	14919.4	49
1	17868	15120	50
1	17873	15120.3	51
1	17874	15120.3	52
1	17878	15120.5	53
1	17879	15120.6	53
1	17880	15120.6	54
1	17885	15120.8	55
1	17886	15120.9	55
1	17936	15122.8	56
1	18007	15124.8	57
1	19167	15614.1	58
1	19170	15614.4	59
1	19172	15614.6	60
1	19173	15614.7	60
1	19188	15615.8	61
1	19294	15622.4	62
1	20284	15929.6	63
1	20719	16119.1	64
1	21179	16135.7	65
1	21661	16321.4	66
1	22013	16422.6	67
1	22146	16521.5	68
1	22149	16521.8	69
1	22151	16522	70
1	22152	16522.1	70
1	22167	16523.2	71
1	22527	16725	72
1	22530	16725.3	73
1	22532	16725.5	74
1	22533	16725.6	74
1	22795	16923.4	75
1	22798	16923.7	76
1	22800	16923.9	77
1	22801	16924	77
1	22806	16924.5	78
1	22958	16929.1	79
1	22964	16929.3	80
1	22965	16929.4	80
1	23255	16942.6	81
1	23258	16942.9	82
1	23260	16943.1	83
1	23261	16943.2	83
1	23557	17113.9	84
1	24361	17426.2	85
1	24617	17516.8	86
1	24620	17517.1	87
1	24622	17517.3	88
1	24623	17517.4	88
1	24645	17517.5	89
1	24651	17517.5	90
1	24653	17517.8	90
1	24657	17517.8	91
1	26299	18110.1	91
1	26474	18121.8	92
1	27266	18424.1	93
1	28449	18812.3	94
1	29768	19224.7	95
1	29991	19420.1	96
1	30849	19619.6	97
1	30968	19623.7	98
1	31559	19816.7	99
1	31562	19817	100
1	31564	19817	101
1	31565	19817.3	101
1	31590	19817.4	102
1	31596	19817.4	103
1	31598	19817.7	103
1	31602	19817.7	104
1	31606	19817.7	105
1	31608	19818	105
1	31715	19821.6	106
1	31717	19821.6	107
1	31722	19821.9	107
1	31934	19828.4	108
1	31936	19828.4	109
1	31940	19828.7	109
1	32040	19835.3	110
1	33420	20331.3	110
1	34002	20513	111
1	34008	20513.2	112
1	34010	20513.2	113
1	34014	20513.2	114
1	34016	20513.5	114
1	34020	20513.5	115
1	34022	20513.5	116
1	34025	20513.5	117
1	34027	20513.8	117
1	34028	20513.8	118
1	34032	20513.8	119
1	34034	20514.1	119
1	34146	20517.9	120
1	34148	20517.9	121
1	34155	20518.2	122
1	34157	20518.2	123
1	34162	20518.5	123
1	34227	20520.1	124
1	34229	20520.1	125
1	34234	20520.4	125
1	34396	20526	126
1	34398	20526	127
1	34402	20526.3	127
1	34482	20528.2	128
1	34484	20528.2	129
1	34594	20534	130
1	37372	21521.6	130
1	37391	21522.2	131
1	37400	21522.5	132
1	37406	21522.8	133
1	37410	21522.8	134
1	37412	21523.1	134
1	37426	21523.4	135
1	37522	21527	136
1	37626	21530.2	137
1	38152	21731.7	138
1	39503	22214.5	139
1	39506	22214.8	140
1	39508	22214.8	141
1	39509	22215.1	141
1	39694	22226.4	142
1	40084	22317.9	143
1	40087	22318.2	144
1	40089	22318.2	145
1	40090	22318.5	145
1	40160	22322.7	146
1	42151	23021.6	147
1	42154	23021.9	148
1	42156	23021.9	149
1	42157	23022.2	149
1	42187	23024	150
1	42318	23032.3	151
1	42321	23032.6	152
1	42323	23032.6	153
1	42324	23032.9	153
1	42334	23033.5	154
1	42504	23125.1	155
1	42507	23125.4	156
1	42509	23125.4	157
1	42510	23125.7	157
1	42520	23126.3	158
1	44590	23821.8	159
1	44596	23822.1	160
1	44599	23822.1	161
1	44602	23822.4	161
1	44668	23824.2	162
1	47536	24917	164
1	47537	24917.3	164
1	47557	24918.7	165
1	47581	24919.3	165
1	47588	24919.6	166
1	47642	24921.4	167
1	47664	24922	168
1	47734	24924.4	169
1	48470	25219.4	170
1	48476	25219.7	171
1	48480	25219.7	172
1	48482	25220	172
1	48760	25228.9	173
1	49661	25418.9	174
1	49667	25419.2	175
1	49671	25419.2	176
1	49673	25419.5	176
1	49747	25421.6	177
1	50226	25615.4	178
1	50229	25615.7	179
1	50231	25615.7	180
1	50232	25616	180
1	50312	25620.8	181
2	5	6513.4	0
2	7	6513.6	1
2	8	6513.7	1
2	33	6516.2	2
2	495	6921.1	3
2	503	6921.8	4
2	505	6921.8	5
2	510	6922	6
2	511	6922.1	6
2	515	6922.1	7
2	517	6922.1	7
2	520	6922.4	8
2	522	6922.6	9
2	523	6922.7	9
2	568	6927.2	10
2	570	6927.2	11
2	573	6927.5	12
2	575	6927.7	13
2	576	6927.8	13
2	611	6931.3	14
2	613	6931.3	15
2	616	6931.6	16
2	618	6931.8	17
2	619	6931.9	17
2	639	6933.9	18
2	1107	7316.1	19
2	1110	7316.4	20
2	1112	7316.6	21
2	1113	7316.7	21
2	1122	7317	22
2	1126	7317	23
2	1130	7317.3	23
2	1134	7317.3	24
2	1793	7620.5	24
2	1800	7620.8	25
2	1804	7620.8	26
2	1806	7621.1	26
2	1815	7621.4	27
2	2096	7911.7	28
2	2099	7912	29
2	2101	7912	30
2	2102	7912.3	30
2	2112	7912.9	31
2	2638	8314.9	32
2	2641	8315.2	33
2	2643	8315.2	34
2	2644	8315.5	34
2	2664	8317.5	35
2	3609	8627.8	36
2	3614	8628.1	37
2	3616	8628.1	38
2	3617	8628.4	38
2	3627	8629.4	39
2	4435	9129.2	40
2	5127	9512.2	41
2	5130	9512.5	42
2	5132	9512.5	43
2	5133	9512.8	43
2	5163	9515	44
2	5715	9815.1	45
2	5718	9815.4	46
2	5720	9815.4	47
2	5721	9815.7	47
2	5766	9818.8	48
2	6788	10411	50
2	6789	10411.3	50
2	6814	10413.8	51
2	7013	10525.4	51
2	7016	10525.7	52
2	7018	10525.7	53
2	7019	10526	53
2	7059	10529	54
2	8215	11119.3	55
2	8218	11119.6	56
2	8220	11119.6	57
2	8221	11119.9	57
2	8236	11120.8	58
2	9985	12113.3	59
2	9988	12113.6	60
2	9990	12113.6	61
2	9991	12113.9	61
2	9995	12113.9	62
2	10001	12113.9	63
2	10003	12114.2	63
2	10007	12114.2	64
2	10011	12114.2	65
2	10013	12114.5	65
2	10169	12122.1	66
2	10171	12122.1	67
2	10172	12122.4	67
2	10197	12124.3	68
2	10199	12124.3	69
2	10200	12124.6	69
2	10230	12127	70
2	11236	12616.9	70
2	11239	12617.2	71
2	11241	12617.2	72
2	11242	12617.5	72
2	11247	12617.8	73
2	11783	12824.7	74
2	11789	12825	75
2	11793	12825	76
2	11795	12825.3	76
2	11877	12828.2	77
2	12129	13012.3	78
2	12132	13012.6	79
2	12134	13012.6	80
2	12135	13012.9	80
2	12195	13016.7	81
2	13053	13225.8	82
2	13059	13226.1	83
2	13061	13226.1	84
2	13062	13226.4	84
2	13097	13228.5	85
2	15176	14231.7	86
2	15179	14232	87
2	15181	14232	88
2	15182	14232.3	88
2	15192	14232.9	89
2	15526	14415.5	90
2	15529	14415.8	91
2	15531	14415.8	92
2	15532	14416.1	92
2	15547	14417	93
2	16313	14621.5	94
2	16315	14621.5	95
2	16316	14621.8	95
2	16351	14623.9	96
2	18193	15130.9	97
2	18196	15131.2	98
2	18198	15131.2	99
2	18199	15131.5	99
2	18219	15132.7	100
2	18507	15322.2	101
2	18510	15322.5	102
2	18512	15322.5	103
2	18513	15322.8	103
2	18518	15323.1	104
2	18915	15517.7	105
2	18918	15518	106
2	18920	15518	107
2	18921	15518.3	107
2	19026	15524.8	108
2	19038	15525.4	109
2	20292	15930.2	110
2	20295	15930.5	111
2	20297	15930.5	112
2	20298	15930.8	112
2	20333	15932.9	113
2	20646	16026.4	114
2	20655	16026.7	115
2	20657	16026.7	116
2	20658	16027	116
2	20713	16030.5	117
2	21677	16322	118
2	21684	16322.3	119
2	21686	16322.3	120
2	21691	16322.6	120
2	21764	16325.6	121
2	24369	17426.8	122
2	24372	17427.1	123
2	24374	17427.1	124
2	24375	17427.4	124
2	24440	17431.5	125
2	24848	17524.4	126
2	24851	17524.7	127
2	24853	17524.7	128
2	24854	17525	128
2	24874	17526.2	129
2	26031	17934	130
2	27804	18612.7	131
2	27807	18613	132
2	27809	18613	133
2	27810	18613.3	133
2	27870	18617.1	134
2	28759	18915	135
2	28762	18915.3	136
2	28764	18915.3	137
2	28765	18915.6	137
2	28840	18920.3	138
2	29133	19014	139
2	29136	19014.3	140
2	29138	19014.3	141
2	29139	19014.6	141
2	29204	19018.7	142
2	30866	19620.2	143
2	30872	19620.5	144
2	30876	19620.5	145
2	30878	19620.8	145
2	31061	19626.1	146
2	31401	19727.1	147
2	31404	19727.4	148
2	31406	19727.4	149
2	31407	19727.7	149
2	31457	19730.7	150
2	31797	19824.3	151
2	31803	19824.6	152
2	31807	19824.6	153
2	31809	19824.9	153
2	31924	19828.4	154
2	33334	20326.1	155
2	33337	20326.4	156
2	33339	20326.4	157
2	33340	20326.7	157
2	33360	20327.9	158
2	34248	20520.9	159
2	34255	20521.2	160
2	34257	20521.2	161
2	34262	20521.5	161
2	34300	20522.8	162
2	34307	20523.1	163
2	34309	20523.1	164
2	34314	20523.4	164
2	34386	20526	165
2	34472	20528.2	166
2	35118	20633.7	167
2	35124	20634	168
2	35128	20634	169
2	35130	20634.3	169
2	35297	20641.4	170
2	35319	20717.7	171
2	35324	20718.1	172
2	35326	20718.1	173
2	35330	20718.1	174
2	35332	20718.4	174
2	35336	20718.4	175
2	35338	20718.4	175
2	35341	20718.7	176
2	35343	20718.7	177
2	35344	20719	177
2	35389	20722.3	178
2	35391	20722.3	179
2	35394	20722.6	180
2	35396	20722.6	181
2	35397	20722.9	181
2	35487	20728.3	182
2	35489	20728.3	183
2	35492	20728.6	184
2	35494	20728.6	185
2	35495	20728.9	185
2	35545	20731.9	186
2	35888	20923	187
2	35891	20923.3	188
2	35893	20923.3	189
2	35894	20923.6	189
2	35954	20927.4	190
2	36280	21029.4	191
2	36286	21029.7	192
2	36290	21029.7	193
2	36292	21030	193
2	36355	21032.1	194
2	36728	21215.6	195
2	36731	21215.9	196
2	36733	21215.9	197
2	36734	21216.2	197
2	36764	21218	198
2	37486	21525.8	199
2	37492	21526.1	200
2	37496	21526.1	201
2	37498	21526.4	201
2	37615	21530.2	202
2	39547	22217.8	203
2	39550	22218.1	204
2	39552	22218.1	205
2	39553	22218.4	205
2	39683	22226.4	206
2	40227	22326.6	207
2	40230	22326.9	208
2	40232	22326.9	209
2	40233	22327.2	209
2	40318	22332.5	210
2	42745	23138.3	211
2	42748	23138.6	212
2	42750	23138.6	213
2	42751	23138.9	213
2	42846	23144.8	214
2	42973	23221.4	215
2	42979	23221.7	216
2	42983	23221.7	217
2	42985	23222	217
2	43071	23224.4	218
2	44791	23828.1	219
2	44798	23828.4	220
2	44800	23828.4	221
2	44805	23828.7	221
2	44888	23832	222
2	45775	24315.1	223
2	45924	24412.2	224
2	45931	24412.5	225
2	45933	24412.5	226
2	45937	24412.5	227
2	45939	24412.8	227
2	45943	24412.8	228
2	45945	24412.8	228
2	45948	24413.1	229
2	45950	24413.1	230
2	45951	24413.4	230
2	45971	24414.8	231
2	45973	24414.8	232
2	46016	24417.5	233
2	47086	24822	234
2	47095	24822.3	235
2	47101	24822.3	236
2	47121	24822.6	236
2	47323	24827.6	237
2	48556	25222.4	238
2	48562	25222.7	239
2	48566	25222.7	240
2	48568	25223	240
2	48750	25228.9	241
2	49840	25424.6	242
2	49846	25424.9	243
2	49850	25424.9	244
2	49852	25425.2	244
2	49929	25428.2	245
3	6	6513.5	0
3	509	6921.9	1
3	521	6922.5	2
3	574	6927.6	3
3	617	6931.7	4
3	1111	7316.5	5
3	1121	7317	6
3	1123	7317	7
3	1128	7317.2	8
3	1129	7317.3	8
3	1133	7317.3	9
3	1135	7317.3	9
3	1138	7317.6	10
3	1140	7317.8	11
3	1141	7317.9	11
3	1176	7321.4	12
3	1178	7321.4	13
3	1181	7321.7	14
3	1183	7321.9	15
3	1184	7322	15
3	1219	7325.5	16
3	1221	7325.5	17
3	1224	7325.8	18
3	1226	7326	19
3	1227	7326.1	19
3	1262	7329.4	20
3	1809	7621.1	21
3	1837	7622	22
3	1864	7623.4	23
3	2104	7912.3	24
3	2107	7912.6	25
3	2109	7912.8	26
3	2110	7912.9	26
3	2117	7913	27
3	2121	7913	28
3	2125	7913.3	28
3	2129	7913.3	29
3	5135	9512.8	29
3	5138	9513.1	30
3	5140	9513.1	31
3	5141	9513.4	31
3	5161	9515	32
3	5723	9815.7	33
3	5726	9816	34
3	5728	9816	35
3	5729	9816.3	35
3	5764	9818.8	36
3	6476	10220.7	37
3	6479	10221	38
3	6481	10221	39
3	6482	10221.3	39
3	6492	10222.3	40
3	8223	11119.9	41
3	8226	11120.2	42
3	8228	11120.2	43
3	8229	11120.5	43
3	8234	11120.8	44
3	9997	12113.9	45
3	10016	12114.5	46
3	10024	12114.8	47
3	10040	12115.4	48
3	10086	12117.3	49
3	10093	12117.6	50
3	10095	12117.6	51
3	10100	12117.9	51
3	10123	12118.9	52
3	10178	12122.7	53
3	10206	12124.9	54
3	11264	12618.1	55
3	11279	12618.7	56
3	11307	12620.5	57
3	11558	12815	59
3	11559	12815.3	59
3	11594	12818.2	60
3	11815	12825.9	60
3	11821	12826.2	61
3	11823	12826.2	62
3	11826	12826.5	62
3	11873	12828.2	63
3	12145	13013.5	64
3	12148	13013.8	65
3	12150	13013.8	66
3	12151	13014.1	66
3	12191	13016.7	67
3	13072	13227	68
3	13075	13227.3	69
3	13077	13227.3	70
3	13078	13227.6	70
3	13093	13228.5	71
3	13256	13325.9	72
3	13259	13326.2	73
3	13261	13326.2	74
3	13262	13326.5	74
3	13312	13330.3	75
3	14961	14216	77
3	14962	14216.3	77
3	15022	14220.7	78
3	15542	14416.7	78
3	15557	14417.1	79
3	15559	14417.1	80
3	15563	14417.1	81
3	15565	14417.4	81
3	15569	14417.4	82
3	15571	14417.4	83
3	15575	14417.4	84
3	15578	14417.7	84
3	15580	14417.7	85
3	15585	14417.7	86
3	15586	14417.7	87
3	15589	14418	87
3	15594	14418	88
3	15600	14418	89
3	15603	14418.3	89
3	15662	14419.9	90
3	15664	14419.9	91
3	15675	14420.2	92
3	15677	14420.2	93
3	15685	14420.5	93
3	15705	14420.8	94
3	15719	14421.1	95
3	15728	14421.4	96