version 2
run SixtyfourNodes-0-20130110-18:19:26-10956
attr configname SixtyfourNodes
attr datetime 20130110-18:19:26
attr experiment SixtyfourNodes
attr inifile omnetpp.ini
attr iterationvars ""
attr iterationvars2 $repetition=0
attr measurement ""
attr network SimphonyDHTNetwork
attr processid 10956
attr repetition 0
attr replication #0
attr resultdir results
attr runnumber 0
attr seedset 0

vector 0  SimphonyDHTNetwork.members[27]  ""  ETV
vector 1  SimphonyDHTNetwork.members[28]  ""  ETV
vector 2  SimphonyDHTNetwork.members[18]  ""  ETV
vector 3  SimphonyDHTNetwork.members[17]  ""  ETV
vector 4  SimphonyDHTNetwork.members[16]  ""  ETV
vector 5  SimphonyDHTNetwork.members[15]  ""  ETV
vector 6  SimphonyDHTNetwork.members[14]  ""  ETV
vector 7  SimphonyDHTNetwork.members[32]  ""  ETV
vector 8  SimphonyDHTNetwork.members[13]  ""  ETV
vector 9  SimphonyDHTNetwork.members[4]  ""  ETV
vector 10  SimphonyDHTNetwork.members[3]  ""  ETV
vector 11  SimphonyDHTNetwork.members[2]  ""  ETV
vector 12  SimphonyDHTNetwork.members[1]  ""  ETV
vector 13  SimphonyDHTNetwork.members[0]  ""  ETV
vector 14  SimphonyDHTNetwork.members[31]  ""  ETV
vector 15  SimphonyDHTNetwork.members[30]  ""  ETV
vector 16  SimphonyDHTNetwork.members[29]  ""  ETV
vector 17  SimphonyDHTNetwork.members[5]  ""  ETV
vector 18  SimphonyDHTNetwork.members[26]  ""  ETV
vector 19  SimphonyDHTNetwork.members[33]  ""  ETV
vector 20  SimphonyDHTNetwork.members[8]  ""  ETV
vector 21  SimphonyDHTNetwork.members[7]  ""  ETV
vector 22  SimphonyDHTNetwork.members[6]  ""  ETV
vector 23  SimphonyDHTNetwork.members[34]  ""  ETV
vector 24  SimphonyDHTNetwork.members[21]  ""  ETV
vector 25  SimphonyDHTNetwork.members[20]  ""  ETV
vector 26  SimphonyDHTNetwork.members[19]  ""  ETV
vector 27  SimphonyDHTNetwork.members[9]  ""  ETV
vector 28  SimphonyDHTNetwork.members[35]  ""  ETV
vector 29  SimphonyDHTNetwork.members[10]  ""  ETV
vector 30  SimphonyDHTNetwork.members[12]  ""  ETV
vector 31  SimphonyDHTNetwork.members[11]  ""  ETV
vector 32  SimphonyDHTNetwork.members[36]  ""  ETV
vector 33  SimphonyDHTNetwork.members[37]  ""  ETV
vector 34  SimphonyDHTNetwork.members[25]  ""  ETV
vector 35  SimphonyDHTNetwork.members[38]  ""  ETV
vector 36  SimphonyDHTNetwork.members[24]  ""  ETV
vector 37  SimphonyDHTNetwork.members[39]  ""  ETV
vector 38  SimphonyDHTNetwork.members[40]  ""  ETV
vector 39  SimphonyDHTNetwork.members[22]  ""  ETV
vector 40  SimphonyDHTNetwork.members[41]  ""  ETV
vector 41  SimphonyDHTNetwork.members[42]  ""  ETV
vector 42  SimphonyDHTNetwork.members[43]  ""  ETV
vector 43  SimphonyDHTNetwork.members[44]  ""  ETV
vector 44  SimphonyDHTNetwork.members[45]  ""  ETV
vector 45  SimphonyDHTNetwork.members[46]  ""  ETV
vector 46  SimphonyDHTNetwork.members[47]  ""  ETV
vector 47  SimphonyDHTNetwork.members[48]  ""  ETV
vector 48  SimphonyDHTNetwork.members[23]  ""  ETV
vector 49  SimphonyDHTNetwork.members[49]  ""  ETV
vector 50  SimphonyDHTNetwork.members[50]  ""  ETV
vector 51  SimphonyDHTNetwork.members[51]  ""  ETV
vector 52  SimphonyDHTNetwork.members[52]  ""  ETV
vector 53  SimphonyDHTNetwork.members[53]  ""  ETV
vector 54  SimphonyDHTNetwork.members[54]  ""  ETV
vector 55  SimphonyDHTNetwork.members[55]  ""  ETV
vector 56  SimphonyDHTNetwork.members[56]  ""  ETV
vector 57  SimphonyDHTNetwork.members[57]  ""  ETV
vector 58  SimphonyDHTNetwork.members[58]  ""  ETV
vector 59  SimphonyDHTNetwork.members[59]  ""  ETV
vector 60  SimphonyDHTNetwork.members[60]  ""  ETV
vector 61  SimphonyDHTNetwork.members[61]  ""  ETV
0	2	3300.30425588399	0
0	107	3309.20425588399	1
0	110	3309.50425588399	2
0	112	3309.70425588399	3
0	113	3309.80425588399	3
0	787	3927.903142579418	4
0	790	3928.203142579418	5
0	792	3928.403142579418	6
0	793	3928.503142579418	6
0	803	3929.503142579418	7
0	1896	4901.75874409438	8
0	1899	4902.05874409438	9
0	1901	4902.25874409438	10
0	1902	4902.35874409438	10
0	1937	4905.45874409438	11
0	2690	5409.608346584673	12
0	2693	5409.908346584673	13
0	2695	5410.108346584673	14
0	2696	5410.208346584673	14
0	2706	5411.208346584673	15
0	2954	5619.713646800937	16
0	2991	5709.178272917559	17
0	2994	5709.478272917559	18
0	2996	5709.678272917559	19
0	2997	5709.778272917559	19
0	3005	5710.078272917559	20
0	3009	5710.078272917559	21
0	3013	5710.378272917559	21
0	3017	5710.378272917559	22
0	3738	6104.572803521525	22
0	3741	6104.872803521525	23
0	3743	6104.872803521525	24
0	3744	6105.172803521525	24
0	3769	6106.872803521525	25
0	3964	6205.162032820304	26
1	3	3300.40425588399	1
1	4	3300.50425588399	1
1	24	3302.50425588399	2
1	103	3308.80425588399	2
1	106	3309.10425588399	3
1	108	3309.30425588399	4
1	109	3309.40425588399	4
1	114	3309.90425588399	5
1	783	3927.503142579418	6
1	786	3927.803142579418	7
1	788	3928.003142579418	8
1	789	3928.103142579418	8
1	804	3929.603142579418	9
1	1539	4612.049644211898	10
1	1895	4901.65874409438	11
1	1897	4901.85874409438	12
1	1898	4901.95874409438	12
1	1938	4905.55874409438	13
1	2259	5115.814318743492	14
1	2686	5409.208346584673	15
1	2689	5409.508346584673	16
1	2691	5409.708346584673	17
1	2692	5409.808346584673	17
1	2707	5411.308346584673	18
1	2950	5619.313646800937	19
1	2953	5619.613646800937	20
1	2955	5619.813646800937	21
1	2956	5619.913646800937	21
1	2987	5708.778272917559	22
1	2990	5709.078272917559	23
1	2992	5709.278272917559	24
1	2993	5709.378272917559	24
1	2998	5709.878272917559	25
1	3128	5801.219461606326	26
1	3734	6104.172803521525	27
1	3737	6104.472803521525	28
1	3739	6104.672803521525	29
1	3740	6104.772803521525	29
1	3770	6106.972803521525	30
1	3960	6205.062032820304	31
1	3966	6205.262032820304	32
2	5	3300.60425588399	0
2	7	3300.80425588399	1
2	8	3300.90425588399	1
2	23	3302.40425588399	2
2	235	3520.874876634386	3
2	247	3521.474876634386	4
2	290	3525.174876634386	5
2	697	3921.103142579418	6
2	700	3921.403142579418	7
2	702	3921.603142579418	8
2	703	3921.703142579418	8
2	733	3924.103142579418	9
2	1273	4417.340020748925	10
2	1285	4417.940020748925	11
2	1318	4420.640020748925	12
2	1351	4423.340020748925	13
2	1380	4506.689294596267	14
2	1384	4506.989294596267	15
2	1386	4506.989294596267	16
2	1391	4507.189294596267	17
2	1392	4507.289294596267	17
2	1396	4507.289294596267	18
2	1398	4507.289294596267	18
2	1401	4507.589294596267	19
2	1403	4507.789294596267	20
2	1404	4507.889294596267	20
2	1419	4508.989294596267	21
2	1421	4508.989294596267	22
2	1424	4509.289294596267	23
2	1426	4509.489294596267	24
2	1427	4509.589294596267	24
2	1447	4510.989294596267	25
2	1449	4510.989294596267	26
2	2224	5114.214318743492	27
2	2230	5114.514318743492	28
2	2234	5114.714318743492	29
2	2235	5114.814318743492	29
2	2290	5116.914318743492	30
2	3253	5905.755657202278	31
2	3255	5905.955657202278	32
2	3256	5906.055657202278	32
2	3271	5907.555657202278	33
2	3498	5912.955657202278	34
2	3515	5913.255657202278	35
2	3531	5913.455657202278	36
2	3532	5913.555657202278	36
2	3809	6109.072803521525	37
2	3812	6109.372803521525	38
2	3814	6109.572803521525	39
2	3815	6109.672803521525	39
2	3865	6202.262032820304	41
2	3866	6202.362032820304	41
2	3876	6202.962032820304	42
3	6	3300.70425588399	0
3	9	3301.00425588399	1
3	11	3301.20425588399	2
3	12	3301.30425588399	2
3	22	3302.30425588399	3
3	701	3921.503142579418	4
3	704	3921.803142579418	5
3	706	3922.003142579418	6
3	707	3922.103142579418	6
3	732	3924.003142579418	7
3	1390	4507.089294596267	8
3	1402	4507.689294596267	9
3	1425	4509.389294596267	10
3	2232	5114.614318743492	11
3	2237	5114.914318743492	12
3	2244	5115.114318743492	13
3	2245	5115.214318743492	13
3	2288	5116.814318743492	14
3	3254	5905.855657202278	15
3	3257	5906.155657202278	16
3	3259	5906.355657202278	17
3	3260	5906.455657202278	17
3	3270	5907.455657202278	18
3	3520	5913.355657202278	19
3	3813	6109.472803521525	20
3	3864	6202.162032820304	21
4	10	3301.10425588399	0
4	13	3301.40425588399	1
4	15	3301.60425588399	2
4	16	3301.70425588399	2
4	21	3302.20425588399	3
4	610	3801.912308536649	4
4	612	3802.112308536649	5
4	613	3802.212308536649	5
4	623	3803.012308536649	6
4	705	3921.903142579418	7
4	708	3922.203142579418	8
4	710	3922.403142579418	9
4	711	3922.503142579418	9
4	731	3923.903142579418	10
4	2134	5110.614318743492	11
4	2136	5110.814318743492	12
4	2137	5110.914318743492	12
4	2142	5111.414318743492	13
4	2240	5115.014318743492	14
4	2247	5115.314318743492	15
4	2251	5115.514318743492	16
4	2253	5115.614318743492	16
4	2287	5116.714318743492	17
4	2450	5301.747296805	19
4	2451	5301.847296805	19
4	2471	5303.647296805	20
4	3258	5906.255657202278	20
4	3261	5906.555657202278	21
4	3263	5906.755657202278	22
4	3264	5906.855657202278	22
4	3269	5907.355657202278	23
4	3954	6204.862032820304	24
4	3958	6205.062032820304	25
4	3963	6205.162032820304	25
5	14	3301.50425588399	0
5	17	3301.80425588399	1
5	19	3302.00425588399	2
5	20	3302.10425588399	2
5	26	3302.50425588399	3
5	30	3302.50425588399	4
5	34	3302.80425588399	4
5	38	3302.80425588399	5
5	387	3634.301699286759	5
5	389	3634.301699286759	6
5	390	3634.601699286759	6
5	410	3636.201699286759	7
5	611	3802.012308536649	8
5	614	3802.312308536649	9
5	616	3802.312308536649	10
5	617	3802.612308536649	10
5	622	3802.912308536649	11
5	709	3922.303142579418	12
5	712	3922.603142579418	13
5	714	3922.603142579418	14
5	715	3922.903142579418	14
5	730	3923.803142579418	15
5	1546	4715.165359739901	17
5	1547	4715.465359739901	17
5	1567	4716.865359739901	18
5	2040	5012.752277022236	19
5	2041	5013.052277022236	19
5	2061	5014.252277022236	20
5	2135	5110.714318743492	20
5	2249	5115.414318743492	21
5	2255	5115.714318743492	22
5	2258	5115.714318743492	23
5	2261	5116.014318743492	23
5	2284	5116.614318743492	24
5	2449	5301.647296805	25
5	3262	5906.655657202278	26
5	3265	5906.955657202278	27
5	3267	5906.955657202278	28
5	3268	5907.255657202278	28
5	3274	5907.655657202278	29
5	3280	5907.655657202278	30
5	3282	5907.955657202278	30
5	3286	5907.955657202278	31
5	3292	5907.955657202278	32
5	3295	5908.255657202278	32
5	3411	5910.655657202278	33
5	3413	5910.655657202278	34
5	3419	5910.955657202278	34
5	3528	5913.355657202278	35
5	3530	5913.355657202278	36
5	3541	5913.655657202278	36
5	3663	5917.155657202278	37
5	3955	6204.962032820304	37
5	3965	6205.262032820304	38
6	18	3301.90425588399	0
6	25	3302.50425588399	1
6	27	3302.50425588399	2
6	32	3302.70425588399	3
6	33	3302.80425588399	3
6	37	3302.80425588399	4
6	39	3302.80425588399	4
6	42	3303.10425588399	5
6	44	3303.30425588399	6
6	45	3303.40425588399	6
6	80	3306.90425588399	7
6	82	3306.90425588399	8
6	85	3307.20425588399	9
6	87	3307.40425588399	10
6	88	3307.50425588399	10
6	93	3308.00425588399	11
6	95	3308.00425588399	12
6	392	3634.601699286759	13
6	395	3634.901699286759	14
6	397	3635.101699286759	15
6	398	3635.201699286759	15
6	408	3636.201699286759	16
6	525	3718.757842586373	17
6	553	3720.557842586373	18
6	586	3722.857842586373	19
6	619	3802.612308536649	20
6	625	3803.112308536649	21
6	627	3803.112308536649	22
6	632	3803.312308536649	23
6	633	3803.412308536649	23
6	637	3803.412308536649	24
6	639	3803.412308536649	24
6	642	3803.712308536649	25
6	644	3803.912308536649	26
6	645	3804.012308536649	26
6	660	3805.512308536649	27
6	662	3805.512308536649	28
6	665	3805.812308536649	29
6	667	3806.012308536649	30
6	668	3806.112308536649	30
6	673	3806.612308536649	31
6	675	3806.612308536649	32
6	678	3806.912308536649	33
6	680	3807.112308536649	34
6	681	3807.212308536649	34
6	686	3807.712308536649	35
6	721	3923.203142579418	36
6	724	3923.503142579418	37
6	726	3923.703142579418	38
6	727	3923.803142579418	38
6	738	3924.203142579418	39
6	742	3924.203142579418	40
6	746	3924.503142579418	40
6	750	3924.503142579418	41
6	1061	4206.417091726781	42
6	1062	4206.717091726781	42
6	1067	4207.217091726781	43
6	2047	5013.352277022236	43
6	2050	5013.652277022236	44
6	2052	5013.652277022236	45
6	2053	5013.952277022236	45
6	2058	5014.252277022236	46
6	2274	5116.314318743492	47
6	2734	5412.608346584673	48
6	2736	5412.608346584673	49
6	2737	5412.908346584673	49
6	2757	5414.308346584673	50
6	2790	5416.608346584673	51
6	2792	5416.608346584673	52
6	2793	5416.908346584673	52
6	2798	5417.408346584673	53
6	3300	5908.255657202278	54
6	3311	5908.555657202278	55
6	3325	5908.855657202278	56
6	3391	5910.355657202278	57
6	3416	5910.855657202278	58
6	3445	5911.555657202278	59
6	3537	5913.555657202278	60
6	3563	5914.055657202278	61
6	3571	5914.255657202278	62
6	3582	5914.555657202278	63
6	3584	5914.555657202278	64
6	3593	5914.855657202278	64
6	3659	5917.155657202278	65
6	3872	6202.662032820304	66
6	3877	6202.962032820304	67
6	3879	6202.962032820304	68
6	3883	6202.962032820304	69
6	3885	6203.262032820304	69
6	3889	6203.262032820304	70
6	3891	6203.262032820304	71
6	3895	6203.262032820304	72
6	3898	6203.562032820304	72
6	3900	6203.562032820304	73
6	3905	6203.562032820304	74
6	3906	6203.562032820304	75
6	3909	6203.862032820304	75
6	3914	6203.862032820304	76
6	3920	6203.862032820304	77
6	3923	6204.162032820304	77
7	28	3302.50425588399	3
7	29	3302.50425588399	4
7	35	3302.80425588399	4
7	36	3302.80425588399	4
7	40	3302.80425588399	7
7	41	3303.10425588399	7
7	81	3306.90425588399	8
7	83	3306.90425588399	9
7	84	3307.20425588399	9
7	94	3308.00425588399	10
7	96	3308.00425588399	11
7	97	3308.30425588399	11
7	117	3310.10425588399	12
7	388	3634.301699286759	12
7	391	3634.601699286759	13
7	393	3634.601699286759	14
7	394	3634.901699286759	14
7	409	3636.201699286759	15
7	524	3718.757842586373	16
7	526	3718.757842586373	17
7	527	3719.057842586373	17
7	542	3719.957842586373	18
7	552	3720.557842586373	19
7	554	3720.557842586373	20
7	555	3720.857842586373	20
7	575	3722.257842586373	21
7	585	3722.857842586373	22
7	587	3722.857842586373	23
7	588	3723.157842586373	23
7	603	3724.057842586373	24
7	615	3802.312308536649	25
7	618	3802.612308536649	26
7	620	3802.612308536649	27
7	621	3802.912308536649	27
7	626	3803.112308536649	28
7	630	3803.112308536649	29
7	634	3803.412308536649	29
7	638	3803.412308536649	30
7	713	3922.603142579418	30
7	716	3922.903142579418	31
7	718	3922.903142579418	32
7	719	3923.203142579418	32
7	729	3923.803142579418	33
7	1545	4715.165359739901	34
7	2039	5012.752277022236	35
7	2042	5013.052277022236	36
7	2044	5013.052277022236	37
7	2045	5013.352277022236	37
7	2060	5014.252277022236	38
7	2257	5115.714318743492	39
7	2263	5116.014318743492	40
7	2265	5116.014318743492	41
7	2270	5116.314318743492	41
7	2282	5116.614318743492	42
7	3266	5906.955657202278	43
7	3273	5907.655657202278	44
7	3275	5907.655657202278	45
7	3279	5907.655657202278	46
7	3281	5907.955657202278	46
7	3285	5907.955657202278	47
7	3287	5907.955657202278	48
7	3291	5907.955657202278	49
7	3294	5908.255657202278	49
7	3296	5908.255657202278	50
7	3301	5908.255657202278	51
7	3302	5908.255657202278	52
7	3305	5908.555657202278	52
7	3310	5908.555657202278	53
7	3316	5908.555657202278	54
7	3319	5908.855657202278	54
7	3375	5910.055657202278	55
7	3377	5910.055657202278	56
7	3383	5910.255657202278	56
7	3385	5910.255657202278	57
7	3388	5910.355657202278	58
7	3396	5910.555657202278	59
7	3398	5910.555657202278	60
7	3409	5910.655657202278	60
7	3414	5910.855657202278	61
7	3423	5910.955657202278	62
7	3433	5911.255657202278	63
7	3435	5911.255657202278	64
7	3443	5911.555657202278	64
7	3505	5912.955657202278	65
7	3507	5912.955657202278	66
7	3516	5913.255657202278	67
7	3518	5913.255657202278	68
7	3526	5913.355657202278	68
7	3533	5913.555657202278	69
7	3544	5913.655657202278	70
7	3550	5913.755657202278	71
7	3552	5913.755657202278	72
7	3558	5913.955657202278	72
7	3560	5913.955657202278	73
7	3561	5914.055657202278	73
7	3569	5914.255657202278	74
7	3619	5915.355657202278	75
7	3639	5915.855657202278	76
7	3661	5917.155657202278	76
7	3867	6202.362032820304	77
7	3869	6202.362032820304	78
7	3870	6202.662032820304	78
7	3875	6202.962032820304	79
8	31	3302.60425588399	0
8	43	3303.20425588399	1
8	86	3307.30425588399	2
8	396	3635.001699286759	3
8	399	3635.301699286759	4
8	401	3635.501699286759	5
8	402	3635.601699286759	5
8	407	3636.101699286759	6
8	631	3803.212308536649	7
8	643	3803.812308536649	8
8	666	3805.912308536649	9
8	669	3806.212308536649	10
8	671	3806.412308536649	11
8	672	3806.512308536649	11
8	679	3807.012308536649	12
8	725	3923.603142579418	13
8	737	3924.203142579418	14
8	739	3924.203142579418	15
8	744	3924.403142579418	16
8	745	3924.503142579418	16
8	749	3924.503142579418	17
8	751	3924.503142579418	17
8	754	3924.803142579418	18
8	756	3925.003142579418	19
8	757	3925.103142579418	19
8	812	3930.203142579418	20
8	814	3930.203142579418	21
8	817	3930.503142579418	22
8	819	3930.703142579418	23
8	820	3930.803142579418	23
8	825	3931.303142579418	24
8	827	3931.303142579418	25
8	830	3931.603142579418	26
8	832	3931.803142579418	27
8	833	3931.903142579418	27
8	838	3932.403142579418	28
8	1089	4208.217091726781	29
8	1091	4208.417091726781	30
8	1092	4208.517091726781	30
8	1117	4211.017091726781	31
8	2055	5013.952277022236	32
8	2062	5014.252277022236	33
8	2064	5014.252277022236	34
8	2069	5014.452277022236	35
8	2070	5014.552277022236	35
8	2074	5014.552277022236	36
8	2076	5014.552277022236	36
8	2079	5014.852277022236	37
8	2081	5015.052277022236	38
8	2082	5015.152277022236	38
8	2102	5017.152277022236	39
8	2104	5017.152277022236	40
8	2107	5017.452277022236	41
8	2109	5017.652277022236	42
8	2110	5017.752277022236	42
8	2115	5018.252277022236	43
8	2117	5018.252277022236	44
8	2120	5018.552277022236	45
8	2122	5018.752277022236	46
8	2123	5018.852277022236	46
8	2128	5019.352277022236	47
8	2343	5208.923211950421	49
8	2344	5209.023211950421	49
8	2354	5210.023211950421	50
8	3607	5915.155657202278	50
8	3622	5915.455657202278	51
8	3628	5915.655657202278	52
8	3629	5915.755657202278	52
8	3656	5917.155657202278	53
8	3829	6110.472803521525	54
8	3831	6110.672803521525	55
8	3832	6110.772803521525	55
8	3837	6111.272803521525	56
9	46	3303.50425588399	0
9	48	3303.70425588399	1
9	49	3303.80425588399	1
9	79	3306.80425588399	2
9	90	3307.70425588399	3
9	135	3406.292481372552	4
9	142	3406.892481372552	5
9	144	3406.892481372552	6
9	149	3407.092481372552	7
9	150	3407.192481372552	7
9	154	3407.192481372552	8
9	156	3407.192481372552	8
9	159	3407.492481372552	9
9	161	3407.692481372552	10
9	162	3407.792481372552	10
9	172	3408.792481372552	11
9	174	3408.792481372552	12
9	187	3409.892481372552	13
9	200	3518.174876634386	14
9	271	3523.674876634386	15
9	314	3527.374876634386	16
9	317	3527.674876634386	17
9	319	3527.874876634386	18
9	320	3527.974876634386	18
9	325	3528.474876634386	19
9	429	3637.701699286759	20
9	457	3639.901699286759	21
9	460	3640.201699286759	22
9	462	3640.401699286759	23
9	463	3640.501699286759	23
9	468	3641.001699286759	24
9	476	3715.257842586373	26
9	477	3715.357842586373	26
9	502	3717.857842586373	27
9	533	3719.357842586373	27
9	561	3721.157842586373	28
9	594	3723.457842586373	29
9	597	3723.757842586373	30
9	599	3723.957842586373	31
9	600	3724.057842586373	31
9	646	3804.112308536649	32
9	648	3804.312308536649	33
9	649	3804.412308536649	33
9	659	3805.412308536649	34
9	865	4022.508922159117	35
9	868	4022.808922159117	36
9	870	4023.008922159117	37
9	871	4023.108922159117	37
9	880	4023.408922159117	38
9	884	4023.408922159117	39
9	888	4023.708922159117	39
9	892	4023.708922159117	40
9	961	4139.152218691418	40
9	1128	4211.717091726781	41
9	1151	4213.217091726781	42
9	1178	4317.352395570615	43
9	1185	4317.752395570615	44
9	1187	4317.752395570615	45
9	1191	4317.752395570615	46
9	1193	4318.052395570615	46
9	1197	4318.052395570615	47
9	1199	4318.052395570615	47
9	1202	4318.352395570615	48
9	1204	4318.352395570615	49
9	1205	4318.652395570615	49
9	1215	4319.252395570615	50
9	1217	4319.252395570615	51
9	1220	4319.552395570615	52
9	1222	4319.552395570615	53
9	1223	4319.852395570615	53
9	1238	4321.352395570615	54
9	1240	4321.352395570615	55
9	1243	4321.652395570615	56
9	1245	4321.652395570615	57
9	1246	4321.952395570615	57
9	1251	4322.452395570615	58
9	1474	4607.349644211898	60
9	1475	4607.649644211898	60
9	1490	4608.749644211898	61
9	1557	4716.165359739901	61
9	1560	4716.465359739901	62
9	1562	4716.465359739901	63
9	1563	4716.765359739901	63
9	1569	4716.865359739901	64
9	1575	4716.865359739901	65
9	1577	4717.165359739901	65
9	1581	4717.165359739901	66
9	1585	4717.165359739901	67
9	1587	4717.465359739901	67
9	1631	4718.965359739901	68
9	1633	4718.965359739901	69
9	1638	4719.265359739901	69
9	1680	4720.665359739901	70
9	1682	4720.665359739901	71
9	1684	4720.965359739901	71
9	1687	4720.965359739901	72
9	1693	4721.265359739901	73
9	2549	5306.447296805	73
9	2571	5307.147296805	74
9	2577	5307.447296805	75
9	2579	5307.447296805	76
9	2582	5307.747296805	76
9	2611	5308.647296805	77
9	2747	5413.608346584673	78
9	2750	5413.908346584673	79
9	2752	5413.908346584673	80
9	2753	5414.208346584673	80
9	2763	5414.708346584673	81
9	2765	5414.708346584673	82
9	2766	5415.008346584673	82
9	2781	5415.908346584673	83
9	2972	5707.378272917559	85
9	2973	5707.678272917559	85
9	3003	5710.078272917559	86
9	3238	5808.119461606326	86
9	3240	5808.119461606326	87
9	3241	5808.419461606326	87
9	3246	5808.719461606326	88
9	3668	6006.716947020311	89
9	3670	6006.716947020311	90
9	3671	6007.016947020311	90
9	3691	6008.416947020311	91
10	47	3303.60425588399	0
10	50	3303.90425588399	1
10	52	3304.10425588399	2
10	53	3304.20425588399	2
10	78	3306.70425588399	3
10	148	3406.992481372552	4
10	160	3407.592481372552	5
10	163	3407.892481372552	6
10	165	3408.092481372552	7
10	166	3408.192481372552	7
10	171	3408.692481372552	8
10	318	3527.774876634386	9
10	321	3528.074876634386	10
10	323	3528.274876634386	11
10	324	3528.374876634386	11
10	461	3640.301699286759	12
10	464	3640.601699286759	13
10	466	3640.801699286759	14
10	467	3640.901699286759	14
10	475	3715.157842586373	15
10	478	3715.457842586373	16
10	480	3715.657842586373	17
10	481	3715.757842586373	17
10	501	3717.757842586373	18
10	598	3723.857842586373	19
10	647	3804.212308536649	20
10	650	3804.512308536649	21
10	652	3804.712308536649	22
10	653	3804.812308536649	22
10	658	3805.312308536649	23
10	758	3925.203142579418	24
10	760	3925.403142579418	25
10	761	3925.503142579418	25
10	811	3930.103142579418	26
10	869	4022.908922159117	27
10	879	4023.408922159117	28
10	881	4023.408922159117	29
10	886	4023.608922159117	30
10	887	4023.708922159117	30
10	891	4023.708922159117	31
10	893	4023.708922159117	31
10	896	4024.008922159117	32
10	898	4024.208922159117	33
10	899	4024.308922159117	33
10	919	4026.308922159117	34
10	921	4026.308922159117	35
10	924	4026.608922159117	36
10	926	4026.808922159117	37
10	927	4026.908922159117	37
10	932	4027.408922159117	38
10	934	4027.408922159117	39
10	937	4027.708922159117	40
10	939	4027.908922159117	41
10	940	4028.008922159117	41
10	950	4029.008922159117	42
10	1052	4146.052218691418	43
10	1054	4146.252218691418	44
10	1055	4146.352218691418	44
10	1207	4318.652395570615	45
10	1297	4418.940020748925	46
10	1300	4419.240020748925	47
10	1302	4419.440020748925	48
10	1303	4419.540020748925	48
10	1308	4420.040020748925	49
10	1330	4421.640020748925	50
10	1333	4421.940020748925	51
10	1335	4422.140020748925	52
10	1336	4422.240020748925	52
10	1341	4422.740020748925	53
10	1363	4424.340020748925	54
10	1366	4424.640020748925	55
10	1368	4424.840020748925	56
10	1369	4424.940020748925	56
10	1410	4508.289294596267	57
10	1413	4508.589294596267	58
10	1415	4508.789294596267	59
10	1416	4508.889294596267	59
10	1571	4716.865359739901	60
10	1590	4717.465359739901	61
10	1598	4717.765359739901	62
10	1648	4719.565359739901	63
10	1732	4811.559389417102	65
10	1733	4811.659389417102	65
10	1743	4812.259389417102	66
10	2124	5018.952277022236	66
10	2126	5019.152277022236	67
10	2127	5019.252277022236	67
10	2595	5308.047296805	68
10	2772	5415.308346584673	69
10	3677	6007.316947020311	70
10	3680	6007.616947020311	71
10	3682	6007.816947020311	72
10	3683	6007.916947020311	72
10	3688	6008.416947020311	73
10	3833	6110.872803521525	74
10	3835	6111.072803521525	75
10	3836	6111.172803521525	75
10	3843	6111.672803521525	76
10	3845	6111.872803521525	77
10	3846	6111.972803521525	77
10	3861	6113.072803521525	78
11	51	3304.00425588399	0
11	54	3304.30425588399	1
11	56	3304.50425588399	2
11	57	3304.60425588399	2
11	77	3306.60425588399	3
11	164	3407.992481372552	4
11	167	3408.292481372552	5
11	169	3408.492481372552	6
11	170	3408.592481372552	6
11	177	3409.092481372552	7
11	179	3409.292481372552	8
11	180	3409.392481372552	8
11	185	3409.892481372552	9
11	274	3523.974876634386	10
11	276	3524.174876634386	11
11	277	3524.274876634386	11
11	322	3528.174876634386	12
11	337	3529.274876634386	13
11	339	3529.474876634386	14
11	340	3529.574876634386	14
11	345	3530.074876634386	15
11	432	3638.001699286759	16
11	434	3638.201699286759	17
11	435	3638.301699286759	17
11	465	3640.701699286759	18
11	479	3715.557842586373	19
11	482	3715.857842586373	20
11	484	3716.057842586373	21
11	485	3716.157842586373	21
11	500	3717.657842586373	22
11	536	3719.657842586373	23
11	538	3719.857842586373	24
11	539	3719.957842586373	24
11	651	3804.612308536649	25
11	654	3804.912308536649	26
11	656	3805.112308536649	27
11	657	3805.212308536649	27
11	759	3925.303142579418	28
11	762	3925.603142579418	29
11	764	3925.803142579418	30
11	765	3925.903142579418	30
11	810	3930.003142579418	31
11	885	4023.508922159117	32
11	897	4024.108922159117	33
11	925	4026.708922159117	34
11	938	4027.808922159117	35
11	941	4028.108922159117	36
11	943	4028.308922159117	37
11	944	4028.408922159117	37
11	949	4028.908922159117	38
11	1016	4142.852218691418	39
11	1018	4143.052218691418	40
11	1019	4143.152218691418	40
11	1053	4146.152218691418	41
11	1301	4419.340020748925	42
11	1304	4419.640020748925	43
11	1306	4419.840020748925	44
11	1307	4419.940020748925	44
11	1334	4422.040020748925	45
11	1337	4422.340020748925	46
11	1339	4422.540020748925	47
11	1340	4422.640020748925	47
11	1367	4424.740020748925	48
11	1414	4508.689294596267	49
11	1731	4811.459389417102	50
11	1789	4813.959389417102	51
11	1794	4814.159389417102	52
11	1795	4814.259389417102	52
11	1817	4814.959389417102	53
11	1823	4815.159389417102	54
11	1824	4815.259389417102	54
11	1834	4815.759389417102	55
11	1854	4816.559389417102	56
11	1860	4816.759389417102	57
11	1861	4816.859389417102	57
11	1871	4817.359389417102	58
11	2001	4909.85874409438	59
11	2003	4910.05874409438	60
11	2004	4910.15874409438	60
11	2125	5019.052277022236	61
11	2172	5112.414318743492	62
11	2177	5112.614318743492	63
11	2178	5112.714318743492	63
11	2181	5112.714318743492	64
11	2186	5112.914318743492	65
11	2187	5113.014318743492	65
11	2199	5113.314318743492	66
11	2204	5113.514318743492	67
11	2205	5113.614318743492	67
11	2216	5113.914318743492	68
11	2220	5114.114318743492	69
11	2222	5114.214318743492	69
11	2271	5116.314318743492	70
11	2297	5116.914318743492	71
11	2304	5117.214318743492	72
11	2309	5117.414318743492	73
11	2310	5117.514318743492	73
11	2312	5117.514318743492	74
11	2316	5117.714318743492	75
11	2317	5117.814318743492	75
11	2328	5118.314318743492	76
11	2337	5119.014318743492	77
11	2509	5304.947296805	78
11	2514	5305.147296805	79
11	2515	5305.247296805	79
11	2527	5305.747296805	80
11	2559	5306.847296805	81
11	2567	5307.047296805	82
11	2568	5307.147296805	82
11	2581	5307.647296805	83
11	2616	5308.747296805	84
11	2619	5308.947296805	85
11	2623	5309.047296805	85
11	2633	5309.547296805	86
11	2836	5531.24420477987	87
11	2838	5531.44420477987	88
11	2839	5531.54420477987	88
11	2849	5532.34420477987	89
11	2851	5532.54420477987	90
11	2852	5532.64420477987	90
11	3096	5716.278272917559	91
11	3098	5716.478272917559	92
11	3099	5716.578272917559	92
11	3119	5718.178272917559	93
11	3121	5718.378272917559	94
11	3122	5718.478272917559	94
11	3143	5802.319461606326	95
11	3145	5802.519461606326	96
11	3146	5802.619461606326	96
11	3161	5803.719461606326	97
11	3389	5910.355657202278	98
11	3395	5910.555657202278	99
11	3399	5910.655657202278	99
11	3510	5913.055657202278	100
11	3514	5913.255657202278	101
11	3519	5913.355657202278	101
11	3681	6007.716947020311	102
11	3684	6008.016947020311	103
11	3686	6008.216947020311	104
11	3687	6008.316947020311	104
11	3694	6008.416947020311	105
11	3700	6008.416947020311	106
11	3702	6008.716947020311	106
11	3706	6008.716947020311	107
11	3834	6110.972803521525	107
11	3844	6111.772803521525	108
11	3847	6112.072803521525	109
11	3849	6112.072803521525	110
11	3850	6112.372803521525	110
11	3860	6112.972803521525	111
12	55	3304.40425588399	0
12	58	3304.70425588399	1
12	60	3304.90425588399	2
12	61	3305.00425588399	2
12	76	3306.50425588399	3
12	168	3408.392481372552	4
12	178	3409.192481372552	5
12	181	3409.492481372552	6
12	183	3409.692481372552	7
12	184	3409.792481372552	7
12	190	3410.192481372552	8
12	192	3410.392481372552	9
12	193	3410.492481372552	9
12	203	3518.474876634386	10
12	205	3518.674876634386	11
12	206	3518.774876634386	11
12	226	3520.774876634386	12
12	275	3524.074876634386	13
12	338	3529.374876634386	14
12	341	3529.674876634386	15
12	343	3529.874876634386	16
12	344	3529.974876634386	16
12	433	3638.101699286759	17
12	483	3715.957842586373	18
12	486	3716.257842586373	19
12	488	3716.457842586373	20
12	489	3716.557842586373	20
12	499	3717.557842586373	21
12	537	3719.757842586373	22
12	564	3721.457842586373	23
12	566	3721.657842586373	24
12	567	3721.757842586373	24
12	572	3722.257842586373	25
12	655	3805.012308536649	26
12	690	3920.603142579418	28
12	691	3920.703142579418	28
12	736	3924.203142579418	29
12	763	3925.703142579418	29
12	766	3926.003142579418	30
12	768	3926.203142579418	31
12	769	3926.303142579418	31
12	809	3929.903142579418	32
12	942	4028.208922159117	33
12	945	4028.508922159117	34
12	947	4028.708922159117	35
12	948	4028.808922159117	35
12	964	4139.452218691418	36
12	966	4139.652218691418	37
12	967	4139.752218691418	37
12	987	4141.352218691418	38
12	1017	4142.952218691418	39
12	1034	4144.452218691418	40
12	1036	4144.652218691418	41
12	1037	4144.752218691418	41
12	1131	4212.017091726781	42
12	1133	4212.217091726781	43
12	1134	4212.317091726781	43
12	1139	4212.617091726781	44
12	1154	4213.517091726781	45
12	1156	4213.717091726781	46
12	1157	4213.817091726781	46
12	1210	4318.952395570615	47
12	1212	4319.152395570615	48
12	1213	4319.252395570615	48
12	1305	4419.740020748925	49
12	1338	4422.440020748925	50
12	1456	4511.589294596267	51
12	1458	4511.789294596267	52
12	1459	4511.889294596267	52
12	1469	4512.489294596267	53
12	1524	4610.749644211898	54