file 31407115 1357921663                                        
version 2
run TwoThousandNodes-0-20130111-17:26:43-3361
attr configname TwoThousandNodes
attr datetime 20130111-17:26:43
attr experiment TwoThousandNodes
attr inifile omnetpp.ini
attr iterationvars ""
attr iterationvars2 $repetition=0
attr measurement ""
attr network SimphonyDHTNetwork
attr processid 3361
attr repetition 0
attr replication #0
attr resultdir results
attr runnumber 0
attr seedset 0

vector 0  SimphonyDHTNetwork.members[272]  ""  ETV
vector 1  SimphonyDHTNetwork.members[273]  ""  ETV
vector 2  SimphonyDHTNetwork.members[263]  ""  ETV
vector 3  SimphonyDHTNetwork.members[262]  ""  ETV
vector 4  SimphonyDHTNetwork.members[253]  ""  ETV
vector 5  SimphonyDHTNetwork.members[252]  ""  ETV
vector 6  SimphonyDHTNetwork.members[243]  ""  ETV
vector 7  SimphonyDHTNetwork.members[242]  ""  ETV
vector 8  SimphonyDHTNetwork.members[233]  ""  ETV
vector 9  SimphonyDHTNetwork.members[232]  ""  ETV
vector 10  SimphonyDHTNetwork.members[223]  ""  ETV
vector 11  SimphonyDHTNetwork.members[222]  ""  ETV
vector 12  SimphonyDHTNetwork.members[213]  ""  ETV
vector 13  SimphonyDHTNetwork.members[212]  ""  ETV
vector 14  SimphonyDHTNetwork.members[203]  ""  ETV
vector 15  SimphonyDHTNetwork.members[202]  ""  ETV
vector 16  SimphonyDHTNetwork.members[193]  ""  ETV
vector 17  SimphonyDHTNetwork.members[192]  ""  ETV
vector 18  SimphonyDHTNetwork.members[183]  ""  ETV
vector 19  SimphonyDHTNetwork.members[182]  ""  ETV
vector 20  SimphonyDHTNetwork.members[173]  ""  ETV
vector 21  SimphonyDHTNetwork.members[172]  ""  ETV
vector 22  SimphonyDHTNetwork.members[163]  ""  ETV
vector 23  SimphonyDHTNetwork.members[162]  ""  ETV
vector 24  SimphonyDHTNetwork.members[153]  ""  ETV
vector 25  SimphonyDHTNetwork.members[152]  ""  ETV
vector 26  SimphonyDHTNetwork.members[143]  ""  ETV
vector 27  SimphonyDHTNetwork.members[142]  ""  ETV
vector 28  SimphonyDHTNetwork.members[133]  ""  ETV
vector 29  SimphonyDHTNetwork.members[132]  ""  ETV
vector 30  SimphonyDHTNetwork.members[123]  ""  ETV
vector 31  SimphonyDHTNetwork.members[122]  ""  ETV
vector 32  SimphonyDHTNetwork.members[113]  ""  ETV
vector 33  SimphonyDHTNetwork.members[112]  ""  ETV
vector 34  SimphonyDHTNetwork.members[103]  ""  ETV
vector 35  SimphonyDHTNetwork.members[102]  ""  ETV
vector 36  SimphonyDHTNetwork.members[93]  ""  ETV
vector 37  SimphonyDHTNetwork.members[92]  ""  ETV
vector 38  SimphonyDHTNetwork.members[83]  ""  ETV
vector 39  SimphonyDHTNetwork.members[82]  ""  ETV
vector 40  SimphonyDHTNetwork.members[73]  ""  ETV
vector 41  SimphonyDHTNetwork.members[72]  ""  ETV
vector 42  SimphonyDHTNetwork.members[63]  ""  ETV
vector 43  SimphonyDHTNetwork.members[62]  ""  ETV
vector 44  SimphonyDHTNetwork.members[53]  ""  ETV
vector 45  SimphonyDHTNetwork.members[52]  ""  ETV
vector 46  SimphonyDHTNetwork.members[43]  ""  ETV
vector 47  SimphonyDHTNetwork.members[42]  ""  ETV
vector 48  SimphonyDHTNetwork.members[33]  ""  ETV
vector 49  SimphonyDHTNetwork.members[32]  ""  ETV
vector 50  SimphonyDHTNetwork.members[23]  ""  ETV
vector 51  SimphonyDHTNetwork.members[22]  ""  ETV
vector 52  SimphonyDHTNetwork.members[13]  ""  ETV
vector 53  SimphonyDHTNetwork.members[12]  ""  ETV
vector 54  SimphonyDHTNetwork.members[3]  ""  ETV
vector 55  SimphonyDHTNetwork.members[2]  ""  ETV
vector 56  SimphonyDHTNetwork.members[1]  ""  ETV
vector 57  SimphonyDHTNetwork.members[0]  ""  ETV
vector 58  SimphonyDHTNetwork.members[1023]  ""  ETV
vector 59  SimphonyDHTNetwork.members[1022]  ""  ETV
vector 60  SimphonyDHTNetwork.members[1013]  ""  ETV
vector 61  SimphonyDHTNetwork.members[1012]  ""  ETV
vector 62  SimphonyDHTNetwork.members[1003]  ""  ETV
vector 63  SimphonyDHTNetwork.members[1002]  ""  ETV
vector 64  SimphonyDHTNetwork.members[993]  ""  ETV
vector 65  SimphonyDHTNetwork.members[992]  ""  ETV
vector 66  SimphonyDHTNetwork.members[983]  ""  ETV
vector 67  SimphonyDHTNetwork.members[982]  ""  ETV
vector 68  SimphonyDHTNetwork.members[973]  ""  ETV
vector 69  SimphonyDHTNetwork.members[972]  ""  ETV
vector 70  SimphonyDHTNetwork.members[963]  ""  ETV
vector 71  SimphonyDHTNetwork.members[962]  ""  ETV
vector 72  SimphonyDHTNetwork.members[953]  ""  ETV
vector 73  SimphonyDHTNetwork.members[952]  ""  ETV
vector 74  SimphonyDHTNetwork.members[943]  ""  ETV
vector 75  SimphonyDHTNetwork.members[942]  ""  ETV
vector 76  SimphonyDHTNetwork.members[933]  ""  ETV
vector 77  SimphonyDHTNetwork.members[932]  ""  ETV
vector 78  SimphonyDHTNetwork.members[923]  ""  ETV
vector 79  SimphonyDHTNetwork.members[922]  ""  ETV
vector 80  SimphonyDHTNetwork.members[913]  ""  ETV
vector 81  SimphonyDHTNetwork.members[912]  ""  ETV
vector 82  SimphonyDHTNetwork.members[903]  ""  ETV
vector 83  SimphonyDHTNetwork.members[902]  ""  ETV
vector 84  SimphonyDHTNetwork.members[893]  ""  ETV
vector 85  SimphonyDHTNetwork.members[892]  ""  ETV
vector 86  SimphonyDHTNetwork.members[883]  ""  ETV
vector 87  SimphonyDHTNetwork.members[882]  ""  ETV
vector 88  SimphonyDHTNetwork.members[873]  ""  ETV
vector 89  SimphonyDHTNetwork.members[872]  ""  ETV
vector 90  SimphonyDHTNetwork.members[863]  ""  ETV
vector 91  SimphonyDHTNetwork.members[862]  ""  ETV
vector 92  SimphonyDHTNetwork.members[853]  ""  ETV
vector 93  SimphonyDHTNetwork.members[852]  ""  ETV
vector 94  SimphonyDHTNetwork.members[843]  ""  ETV
vector 95  SimphonyDHTNetwork.members[842]  ""  ETV
vector 96  SimphonyDHTNetwork.members[833]  ""  ETV
vector 97  SimphonyDHTNetwork.members[832]  ""  ETV
vector 98  SimphonyDHTNetwork.members[823]  ""  ETV
vector 99  SimphonyDHTNetwork.members[822]  ""  ETV
vector 100  SimphonyDHTNetwork.members[813]  ""  ETV
vector 101  SimphonyDHTNetwork.members[812]  ""  ETV
vector 102  SimphonyDHTNetwork.members[803]  ""  ETV
vector 103  SimphonyDHTNetwork.members[802]  ""  ETV
vector 104  SimphonyDHTNetwork.members[801]  ""  ETV
vector 105  SimphonyDHTNetwork.members[800]  ""  ETV
vector 106  SimphonyDHTNetwork.members[799]  ""  ETV
vector 107  SimphonyDHTNetwork.members[798]  ""  ETV
vector 108  SimphonyDHTNetwork.members[797]  ""  ETV
vector 109  SimphonyDHTNetwork.members[796]  ""  ETV
vector 110  SimphonyDHTNetwork.members[1024]  ""  ETV
vector 111  SimphonyDHTNetwork.members[795]  ""  ETV
vector 112  SimphonyDHTNetwork.members[786]  ""  ETV
vector 113  SimphonyDHTNetwork.members[785]  ""  ETV
vector 114  SimphonyDHTNetwork.members[776]  ""  ETV
vector 115  SimphonyDHTNetwork.members[775]  ""  ETV
vector 116  SimphonyDHTNetwork.members[766]  ""  ETV
vector 117  SimphonyDHTNetwork.members[765]  ""  ETV
vector 118  SimphonyDHTNetwork.members[756]  ""  ETV
vector 119  SimphonyDHTNetwork.members[755]  ""  ETV
vector 120  SimphonyDHTNetwork.members[746]  ""  ETV
vector 121  SimphonyDHTNetwork.members[745]  ""  ETV
vector 122  SimphonyDHTNetwork.members[736]  ""  ETV
vector 123  SimphonyDHTNetwork.members[735]  ""  ETV
vector 124  SimphonyDHTNetwork.members[726]  ""  ETV
vector 125  SimphonyDHTNetwork.members[725]  ""  ETV
vector 126  SimphonyDHTNetwork.members[716]  ""  ETV
vector 127  SimphonyDHTNetwork.members[715]  ""  ETV
vector 128  SimphonyDHTNetwork.members[706]  ""  ETV
vector 129  SimphonyDHTNetwork.members[705]  ""  ETV
vector 130  SimphonyDHTNetwork.members[696]  ""  ETV
vector 131  SimphonyDHTNetwork.members[695]  ""  ETV
vector 132  SimphonyDHTNetwork.members[686]  ""  ETV
vector 133  SimphonyDHTNetwork.members[685]  ""  ETV
vector 134  SimphonyDHTNetwork.members[676]  ""  ETV
vector 135  SimphonyDHTNetwork.members[675]  ""  ETV
vector 136  SimphonyDHTNetwork.members[666]  ""  ETV
vector 137  SimphonyDHTNetwork.members[665]  ""  ETV
vector 138  SimphonyDHTNetwork.members[656]  ""  ETV
vector 139  SimphonyDHTNetwork.members[655]  ""  ETV
vector 140  SimphonyDHTNetwork.members[646]  ""  ETV
vector 141  SimphonyDHTNetwork.members[645]  ""  ETV
vector 142  SimphonyDHTNetwork.members[636]  ""  ETV
vector 143  SimphonyDHTNetwork.members[635]  ""  ETV
vector 144  SimphonyDHTNetwork.members[626]  ""  ETV
vector 145  SimphonyDHTNetwork.members[625]  ""  ETV
vector 146  SimphonyDHTNetwork.members[616]  ""  ETV
vector 147  SimphonyDHTNetwork.members[615]  ""  ETV
vector 148  SimphonyDHTNetwork.members[606]  ""  ETV
vector 149  SimphonyDHTNetwork.members[605]  ""  ETV
vector 150  SimphonyDHTNetwork.members[596]  ""  ETV
vector 151  SimphonyDHTNetwork.members[595]  ""  ETV
vector 152  SimphonyDHTNetwork.members[586]  ""  ETV
vector 153  SimphonyDHTNetwork.members[585]  ""  ETV
vector 154  SimphonyDHTNetwork.members[576]  ""  ETV
vector 155  SimphonyDHTNetwork.members[575]  ""  ETV
vector 156  SimphonyDHTNetwork.members[566]  ""  ETV
vector 157  SimphonyDHTNetwork.members[565]  ""  ETV
vector 158  SimphonyDHTNetwork.members[556]  ""  ETV
vector 159  SimphonyDHTNetwork.members[555]  ""  ETV
vector 160  SimphonyDHTNetwork.members[546]  ""  ETV
vector 161  SimphonyDHTNetwork.members[545]  ""  ETV
vector 162  SimphonyDHTNetwork.members[536]  ""  ETV
vector 163  SimphonyDHTNetwork.members[535]  ""  ETV
vector 164  SimphonyDHTNetwork.members[526]  ""  ETV
vector 165  SimphonyDHTNetwork.members[525]  ""  ETV
vector 166  SimphonyDHTNetwork.members[516]  ""  ETV
vector 167  SimphonyDHTNetwork.members[515]  ""  ETV
vector 168  SimphonyDHTNetwork.members[506]  ""  ETV
vector 169  SimphonyDHTNetwork.members[505]  ""  ETV
vector 170  SimphonyDHTNetwork.members[496]  ""  ETV
vector 171  SimphonyDHTNetwork.members[495]  ""  ETV
vector 172  SimphonyDHTNetwork.members[486]  ""  ETV
vector 173  SimphonyDHTNetwork.members[485]  ""  ETV
vector 174  SimphonyDHTNetwork.members[476]  ""  ETV
vector 175  SimphonyDHTNetwork.members[475]  ""  ETV
vector 176  SimphonyDHTNetwork.members[466]  ""  ETV
vector 177  SimphonyDHTNetwork.members[465]  ""  ETV
vector 178  SimphonyDHTNetwork.members[456]  ""  ETV
vector 179  SimphonyDHTNetwork.members[455]  ""  ETV
vector 180  SimphonyDHTNetwork.members[446]  ""  ETV
vector 181  SimphonyDHTNetwork.members[445]  ""  ETV
vector 182  SimphonyDHTNetwork.members[436]  ""  ETV
vector 183  SimphonyDHTNetwork.members[435]  ""  ETV
vector 184  SimphonyDHTNetwork.members[426]  ""  ETV
vector 185  SimphonyDHTNetwork.members[425]  ""  ETV
vector 186  SimphonyDHTNetwork.members[416]  ""  ETV
vector 187  SimphonyDHTNetwork.members[415]  ""  ETV
vector 188  SimphonyDHTNetwork.members[406]  ""  ETV
vector 189  SimphonyDHTNetwork.members[405]  ""  ETV
vector 190  SimphonyDHTNetwork.members[396]  ""  ETV
vector 191  SimphonyDHTNetwork.members[395]  ""  ETV
vector 192  SimphonyDHTNetwork.members[386]  ""  ETV
vector 193  SimphonyDHTNetwork.members[385]  ""  ETV
vector 194  SimphonyDHTNetwork.members[376]  ""  ETV
vector 195  SimphonyDHTNetwork.members[375]  ""  ETV
vector 196  SimphonyDHTNetwork.members[366]  ""  ETV
vector 197  SimphonyDHTNetwork.members[365]  ""  ETV
vector 198  SimphonyDHTNetwork.members[356]  ""  ETV
vector 199  SimphonyDHTNetwork.members[355]  ""  ETV
vector 200  SimphonyDHTNetwork.members[346]  ""  ETV
vector 201  SimphonyDHTNetwork.members[345]  ""  ETV
vector 202  SimphonyDHTNetwork.members[336]  ""  ETV
vector 203  SimphonyDHTNetwork.members[335]  ""  ETV
vector 204  SimphonyDHTNetwork.members[326]  ""  ETV
vector 205  SimphonyDHTNetwork.members[325]  ""  ETV
vector 206  SimphonyDHTNetwork.members[316]  ""  ETV
vector 207  SimphonyDHTNetwork.members[315]  ""  ETV
vector 208  SimphonyDHTNetwork.members[306]  ""  ETV
vector 209  SimphonyDHTNetwork.members[305]  ""  ETV
vector 210  SimphonyDHTNetwork.members[296]  ""  ETV
vector 211  SimphonyDHTNetwork.members[295]  ""  ETV
vector 212  SimphonyDHTNetwork.members[286]  ""  ETV
vector 213  SimphonyDHTNetwork.members[285]  ""  ETV
vector 214  SimphonyDHTNetwork.members[276]  ""  ETV
vector 215  SimphonyDHTNetwork.members[275]  ""  ETV
vector 216  SimphonyDHTNetwork.members[266]  ""  ETV
vector 217  SimphonyDHTNetwork.members[265]  ""  ETV
vector 218  SimphonyDHTNetwork.members[256]  ""  ETV
vector 219  SimphonyDHTNetwork.members[255]  ""  ETV
vector 220  SimphonyDHTNetwork.members[246]  ""  ETV
vector 221  SimphonyDHTNetwork.members[245]  ""  ETV
vector 222  SimphonyDHTNetwork.members[236]  ""  ETV
vector 223  SimphonyDHTNetwork.members[235]  ""  ETV
vector 224  SimphonyDHTNetwork.members[226]  ""  ETV
vector 225  SimphonyDHTNetwork.members[225]  ""  ETV
vector 226  SimphonyDHTNetwork.members[216]  ""  ETV
vector 227  SimphonyDHTNetwork.members[215]  ""  ETV
vector 228  SimphonyDHTNetwork.members[206]  ""  ETV
vector 229  SimphonyDHTNetwork.members[205]  ""  ETV
vector 230  SimphonyDHTNetwork.members[196]  ""  ETV
vector 231  SimphonyDHTNetwork.members[195]  ""  ETV
vector 232  SimphonyDHTNetwork.members[186]  ""  ETV
vector 233  SimphonyDHTNetwork.members[185]  ""  ETV
vector 234  SimphonyDHTNetwork.members[176]  ""  ETV
vector 235  SimphonyDHTNetwork.members[175]  ""  ETV
vector 236  SimphonyDHTNetwork.members[166]  ""  ETV
vector 237  SimphonyDHTNetwork.members[165]  ""  ETV
vector 238  SimphonyDHTNetwork.members[156]  ""  ETV
vector 239  SimphonyDHTNetwork.members[155]  ""  ETV
vector 240  SimphonyDHTNetwork.members[146]  ""  ETV
vector 241  SimphonyDHTNetwork.members[145]  ""  ETV
vector 242  SimphonyDHTNetwork.members[136]  ""  ETV
vector 243  SimphonyDHTNetwork.members[135]  ""  ETV
vector 244  SimphonyDHTNetwork.members[126]  ""  ETV
vector 245  SimphonyDHTNetwork.members[125]  ""  ETV
vector 246  SimphonyDHTNetwork.members[116]  ""  ETV
vector 247  SimphonyDHTNetwork.members[115]  ""  ETV
vector 248  SimphonyDHTNetwork.members[106]  ""  ETV
vector 249  SimphonyDHTNetwork.members[105]  ""  ETV
vector 250  SimphonyDHTNetwork.members[96]  ""  ETV
vector 251  SimphonyDHTNetwork.members[95]  ""  ETV
vector 252  SimphonyDHTNetwork.members[86]  ""  ETV
vector 253  SimphonyDHTNetwork.members[85]  ""  ETV
vector 254  SimphonyDHTNetwork.members[76]  ""  ETV
vector 255  SimphonyDHTNetwork.members[75]  ""  ETV
vector 256  SimphonyDHTNetwork.members[66]  ""  ETV
vector 257  SimphonyDHTNetwork.members[65]  ""  ETV
vector 258  SimphonyDHTNetwork.members[56]  ""  ETV
vector 259  SimphonyDHTNetwork.members[55]  ""  ETV
vector 260  SimphonyDHTNetwork.members[46]  ""  ETV
vector 261  SimphonyDHTNetwork.members[45]  ""  ETV
vector 262  SimphonyDHTNetwork.members[36]  ""  ETV
vector 263  SimphonyDHTNetwork.members[35]  ""  ETV
vector 264  SimphonyDHTNetwork.members[26]  ""  ETV
vector 265  SimphonyDHTNetwork.members[25]  ""  ETV
vector 266  SimphonyDHTNetwork.members[16]  ""  ETV
vector 267  SimphonyDHTNetwork.members[15]  ""  ETV
vector 268  SimphonyDHTNetwork.members[6]  ""  ETV
vector 269  SimphonyDHTNetwork.members[5]  ""  ETV
vector 270  SimphonyDHTNetwork.members[4]  ""  ETV
vector 271  SimphonyDHTNetwork.members[1025]  ""  ETV
vector 272  SimphonyDHTNetwork.members[311]  ""  ETV
vector 273  SimphonyDHTNetwork.members[312]  ""  ETV
vector 274  SimphonyDHTNetwork.members[302]  ""  ETV
vector 275  SimphonyDHTNetwork.members[301]  ""  ETV
vector 276  SimphonyDHTNetwork.members[292]  ""  ETV
vector 277  SimphonyDHTNetwork.members[291]  ""  ETV
vector 278  SimphonyDHTNetwork.members[282]  ""  ETV
vector 279  SimphonyDHTNetwork.members[281]  ""  ETV
vector 280  SimphonyDHTNetwork.members[271]  ""  ETV
vector 281  SimphonyDHTNetwork.members[261]  ""  ETV
vector 282  SimphonyDHTNetwork.members[251]  ""  ETV
vector 283  SimphonyDHTNetwork.members[241]  ""  ETV
vector 284  SimphonyDHTNetwork.members[231]  ""  ETV
vector 285  SimphonyDHTNetwork.members[221]  ""  ETV
vector 286  SimphonyDHTNetwork.members[211]  ""  ETV
vector 287  SimphonyDHTNetwork.members[201]  ""  ETV
vector 288  SimphonyDHTNetwork.members[191]  ""  ETV
vector 289  SimphonyDHTNetwork.members[181]  ""  ETV
vector 290  SimphonyDHTNetwork.members[171]  ""  ETV
vector 291  SimphonyDHTNetwork.members[161]  ""  ETV
vector 292  SimphonyDHTNetwork.members[151]  ""  ETV
vector 293  SimphonyDHTNetwork.members[141]  ""  ETV
vector 294  SimphonyDHTNetwork.members[131]  ""  ETV
vector 295  SimphonyDHTNetwork.members[121]  ""  ETV
vector 296  SimphonyDHTNetwork.members[111]  ""  ETV
vector 297  SimphonyDHTNetwork.members[101]  ""  ETV
vector 298  SimphonyDHTNetwork.members[91]  ""  ETV
vector 299  SimphonyDHTNetwork.members[81]  ""  ETV
vector 300  SimphonyDHTNetwork.members[71]  ""  ETV
vector 301  SimphonyDHTNetwork.members[61]  ""  ETV
vector 302  SimphonyDHTNetwork.members[51]  ""  ETV
vector 303  SimphonyDHTNetwork.members[41]  ""  ETV
vector 304  SimphonyDHTNetwork.members[31]  ""  ETV
vector 305  SimphonyDHTNetwork.members[21]  ""  ETV
vector 306  SimphonyDHTNetwork.members[11]  ""  ETV
vector 307  SimphonyDHTNetwork.members[24]  ""  ETV
vector 308  SimphonyDHTNetwork.members[20]  ""  ETV
vector 309  SimphonyDHTNetwork.members[871]  ""  ETV
vector 310  SimphonyDHTNetwork.members[870]  ""  ETV
vector 311  SimphonyDHTNetwork.members[869]  ""  ETV
vector 312  SimphonyDHTNetwork.members[868]  ""  ETV
vector 313  SimphonyDHTNetwork.members[867]  ""  ETV
vector 314  SimphonyDHTNetwork.members[858]  ""  ETV
vector 315  SimphonyDHTNetwork.members[857]  ""  ETV
vector 316  SimphonyDHTNetwork.members[848]  ""  ETV
vector 317  SimphonyDHTNetwork.members[847]  ""  ETV
vector 318  SimphonyDHTNetwork.members[838]  ""  ETV
vector 319  SimphonyDHTNetwork.members[837]  ""  ETV
vector 320  SimphonyDHTNetwork.members[828]  ""  ETV
vector 321  SimphonyDHTNetwork.members[827]  ""  ETV
vector 322  SimphonyDHTNetwork.members[818]  ""  ETV
vector 323  SimphonyDHTNetwork.members[817]  ""  ETV
vector 324  SimphonyDHTNetwork.members[808]  ""  ETV
vector 325  SimphonyDHTNetwork.members[807]  ""  ETV
vector 326  SimphonyDHTNetwork.members[788]  ""  ETV
vector 327  SimphonyDHTNetwork.members[787]  ""  ETV
vector 328  SimphonyDHTNetwork.members[778]  ""  ETV
vector 329  SimphonyDHTNetwork.members[777]  ""  ETV
vector 330  SimphonyDHTNetwork.members[768]  ""  ETV
vector 331  SimphonyDHTNetwork.members[767]  ""  ETV
vector 332  SimphonyDHTNetwork.members[758]  ""  ETV
vector 333  SimphonyDHTNetwork.members[757]  ""  ETV
vector 334  SimphonyDHTNetwork.members[748]  ""  ETV
vector 335  SimphonyDHTNetwork.members[747]  ""  ETV
vector 336  SimphonyDHTNetwork.members[738]  ""  ETV
vector 337  SimphonyDHTNetwork.members[737]  ""  ETV
vector 338  SimphonyDHTNetwork.members[728]  ""  ETV
vector 339  SimphonyDHTNetwork.members[727]  ""  ETV
vector 340  SimphonyDHTNetwork.members[718]  ""  ETV
vector 341  SimphonyDHTNetwork.members[717]  ""  ETV
vector 342  SimphonyDHTNetwork.members[708]  ""  ETV
vector 343  SimphonyDHTNetwork.members[707]  ""  ETV
vector 344  SimphonyDHTNetwork.members[698]  ""  ETV
vector 345  SimphonyDHTNetwork.members[697]  ""  ETV
vector 346  SimphonyDHTNetwork.members[688]  ""  ETV
vector 347  SimphonyDHTNetwork.members[687]  ""  ETV
vector 348  SimphonyDHTNetwork.members[678]  ""  ETV
vector 349  SimphonyDHTNetwork.members[677]  ""  ETV
vector 350  SimphonyDHTNetwork.members[668]  ""  ETV
vector 351  SimphonyDHTNetwork.members[667]  ""  ETV
vector 352  SimphonyDHTNetwork.members[658]  ""  ETV
vector 353  SimphonyDHTNetwork.members[657]  ""  ETV
vector 354  SimphonyDHTNetwork.members[648]  ""  ETV
vector 355  SimphonyDHTNetwork.members[647]  ""  ETV
vector 356  SimphonyDHTNetwork.members[638]  ""  ETV
vector 357  SimphonyDHTNetwork.members[637]  ""  ETV
vector 358  SimphonyDHTNetwork.members[628]  ""  ETV
vector 359  SimphonyDHTNetwork.members[627]  ""  ETV
vector 360  SimphonyDHTNetwork.members[618]  ""  ETV
vector 361  SimphonyDHTNetwork.members[617]  ""  ETV
vector 362  SimphonyDHTNetwork.members[608]  ""  ETV
vector 363  SimphonyDHTNetwork.members[607]  ""  ETV
vector 364  SimphonyDHTNetwork.members[598]  ""  ETV
vector 365  SimphonyDHTNetwork.members[597]  ""  ETV
vector 366  SimphonyDHTNetwork.members[588]  ""  ETV
vector 367  SimphonyDHTNetwork.members[587]  ""  ETV
vector 368  SimphonyDHTNetwork.members[578]  ""  ETV
vector 369  SimphonyDHTNetwork.members[577]  ""  ETV
vector 370  SimphonyDHTNetwork.members[568]  ""  ETV
vector 371  SimphonyDHTNetwork.members[567]  ""  ETV
vector 372  SimphonyDHTNetwork.members[558]  ""  ETV
vector 373  SimphonyDHTNetwork.members[557]  ""  ETV
vector 374  SimphonyDHTNetwork.members[548]  ""  ETV
vector 375  SimphonyDHTNetwork.members[547]  ""  ETV
vector 376  SimphonyDHTNetwork.members[538]  ""  ETV
vector 377  SimphonyDHTNetwork.members[537]  ""  ETV
vector 378  SimphonyDHTNetwork.members[528]  ""  ETV
vector 379  SimphonyDHTNetwork.members[527]  ""  ETV
vector 380  SimphonyDHTNetwork.members[518]  ""  ETV
vector 381  SimphonyDHTNetwork.members[517]  ""  ETV
vector 382  SimphonyDHTNetwork.members[508]  ""  ETV
vector 383  SimphonyDHTNetwork.members[507]  ""  ETV
vector 384  SimphonyDHTNetwork.members[498]  ""  ETV
vector 385  SimphonyDHTNetwork.members[497]  ""  ETV
vector 386  SimphonyDHTNetwork.members[488]  ""  ETV
vector 387  SimphonyDHTNetwork.members[487]  ""  ETV
vector 388  SimphonyDHTNetwork.members[478]  ""  ETV
vector 389  SimphonyDHTNetwork.members[477]  ""  ETV
vector 390  SimphonyDHTNetwork.members[468]  ""  ETV
vector 391  SimphonyDHTNetwork.members[467]  ""  ETV
vector 392  SimphonyDHTNetwork.members[458]  ""  ETV
vector 393  SimphonyDHTNetwork.members[457]  ""  ETV
vector 394  SimphonyDHTNetwork.members[448]  ""  ETV
vector 395  SimphonyDHTNetwork.members[447]  ""  ETV
vector 396  SimphonyDHTNetwork.members[438]  ""  ETV
vector 397  SimphonyDHTNetwork.members[437]  ""  ETV
vector 398  SimphonyDHTNetwork.members[428]  ""  ETV
vector 399  SimphonyDHTNetwork.members[427]  ""  ETV
vector 400  SimphonyDHTNetwork.members[418]  ""  ETV
vector 401  SimphonyDHTNetwork.members[417]  ""  ETV
vector 402  SimphonyDHTNetwork.members[408]  ""  ETV
vector 403  SimphonyDHTNetwork.members[407]  ""  ETV
vector 404  SimphonyDHTNetwork.members[398]  ""  ETV
vector 405  SimphonyDHTNetwork.members[397]  ""  ETV
vector 406  SimphonyDHTNetwork.members[388]  ""  ETV
vector 407  SimphonyDHTNetwork.members[387]  ""  ETV
vector 408  SimphonyDHTNetwork.members[378]  ""  ETV
vector 409  SimphonyDHTNetwork.members[377]  ""  ETV
vector 410  SimphonyDHTNetwork.members[368]  ""  ETV
vector 411  SimphonyDHTNetwork.members[367]  ""  ETV
vector 412  SimphonyDHTNetwork.members[358]  ""  ETV
vector 413  SimphonyDHTNetwork.members[357]  ""  ETV
vector 414  SimphonyDHTNetwork.members[348]  ""  ETV
vector 415  SimphonyDHTNetwork.members[347]  ""  ETV
vector 416  SimphonyDHTNetwork.members[338]  ""  ETV
vector 417  SimphonyDHTNetwork.members[337]  ""  ETV
vector 418  SimphonyDHTNetwork.members[328]  ""  ETV
vector 419  SimphonyDHTNetwork.members[327]  ""  ETV
vector 420  SimphonyDHTNetwork.members[318]  ""  ETV
vector 421  SimphonyDHTNetwork.members[317]  ""  ETV
vector 422  SimphonyDHTNetwork.members[308]  ""  ETV
vector 423  SimphonyDHTNetwork.members[307]  ""  ETV
vector 424  SimphonyDHTNetwork.members[298]  ""  ETV
vector 425  SimphonyDHTNetwork.members[297]  ""  ETV
vector 426  SimphonyDHTNetwork.members[288]  ""  ETV
vector 427  SimphonyDHTNetwork.members[287]  ""  ETV
vector 428  SimphonyDHTNetwork.members[278]  ""  ETV
vector 429  SimphonyDHTNetwork.members[277]  ""  ETV
vector 430  SimphonyDHTNetwork.members[268]  ""  ETV
vector 431  SimphonyDHTNetwork.members[267]  ""  ETV
vector 432  SimphonyDHTNetwork.members[258]  ""  ETV
vector 433  SimphonyDHTNetwork.members[257]  ""  ETV
vector 434  SimphonyDHTNetwork.members[248]  ""  ETV
vector 435  SimphonyDHTNetwork.members[247]  ""  ETV
vector 436  SimphonyDHTNetwork.members[238]  ""  ETV
vector 437  SimphonyDHTNetwork.members[237]  ""  ETV
vector 438  SimphonyDHTNetwork.members[228]  ""  ETV
vector 439  SimphonyDHTNetwork.members[227]  ""  ETV
vector 440  SimphonyDHTNetwork.members[218]  ""  ETV
vector 441  SimphonyDHTNetwork.members[217]  ""  ETV
vector 442  SimphonyDHTNetwork.members[208]  ""  ETV
vector 443  SimphonyDHTNetwork.members[207]  ""  ETV
vector 444  SimphonyDHTNetwork.members[198]  ""  ETV
vector 445  SimphonyDHTNetwork.members[197]  ""  ETV
vector 446  SimphonyDHTNetwork.members[188]  ""  ETV
vector 447  SimphonyDHTNetwork.members[187]  ""  ETV
vector 448  SimphonyDHTNetwork.members[178]  ""  ETV
vector 449  SimphonyDHTNetwork.members[177]  ""  ETV
vector 450  SimphonyDHTNetwork.members[168]  ""  ETV
vector 451  SimphonyDHTNetwork.members[167]  ""  ETV
vector 452  SimphonyDHTNetwork.members[158]  ""  ETV
vector 453  SimphonyDHTNetwork.members[157]  ""  ETV
vector 454  SimphonyDHTNetwork.members[148]  ""  ETV
vector 455  SimphonyDHTNetwork.members[147]  ""  ETV
vector 456  SimphonyDHTNetwork.members[138]  ""  ETV
vector 457  SimphonyDHTNetwork.members[137]  ""  ETV
vector 458  SimphonyDHTNetwork.members[128]  ""  ETV
vector 459  SimphonyDHTNetwork.members[127]  ""  ETV
vector 460  SimphonyDHTNetwork.members[118]  ""  ETV
vector 461  SimphonyDHTNetwork.members[117]  ""  ETV
vector 462  SimphonyDHTNetwork.members[108]  ""  ETV
vector 463  SimphonyDHTNetwork.members[107]  ""  ETV
vector 464  SimphonyDHTNetwork.members[104]  ""  ETV
vector 465  SimphonyDHTNetwork.members[1026]  ""  ETV
vector 466  SimphonyDHTNetwork.members[240]  ""  ETV
vector 467  SimphonyDHTNetwork.members[230]  ""  ETV
vector 468  SimphonyDHTNetwork.members[220]  ""  ETV
vector 469  SimphonyDHTNetwork.members[210]  ""  ETV
vector 470  SimphonyDHTNetwork.members[200]  ""  ETV
vector 471  SimphonyDHTNetwork.members[190]  ""  ETV
vector 472  SimphonyDHTNetwork.members[180]  ""  ETV
vector 473  SimphonyDHTNetwork.members[170]  ""  ETV
vector 474  SimphonyDHTNetwork.members[160]  ""  ETV
vector 475  SimphonyDHTNetwork.members[150]  ""  ETV
vector 476  SimphonyDHTNetwork.members[140]  ""  ETV
vector 477  SimphonyDHTNetwork.members[130]  ""  ETV
vector 478  SimphonyDHTNetwork.members[120]  ""  ETV
vector 479  SimphonyDHTNetwork.members[110]  ""  ETV
vector 480  SimphonyDHTNetwork.members[100]  ""  ETV
vector 481  SimphonyDHTNetwork.members[90]  ""  ETV
vector 482  SimphonyDHTNetwork.members[80]  ""  ETV
vector 483  SimphonyDHTNetwork.members[70]  ""  ETV
vector 484  SimphonyDHTNetwork.members[60]  ""  ETV
vector 485  SimphonyDHTNetwork.members[50]  ""  ETV
vector 486  SimphonyDHTNetwork.members[40]  ""  ETV
vector 487  SimphonyDHTNetwork.members[30]  ""  ETV
vector 488  SimphonyDHTNetwork.members[10]  ""  ETV
vector 489  SimphonyDHTNetwork.members[98]  ""  ETV
vector 490  SimphonyDHTNetwork.members[97]  ""  ETV
vector 491  SimphonyDHTNetwork.members[88]  ""  ETV
vector 492  SimphonyDHTNetwork.members[87]  ""  ETV
vector 493  SimphonyDHTNetwork.members[78]  ""  ETV
vector 494  SimphonyDHTNetwork.members[77]  ""  ETV
vector 495  SimphonyDHTNetwork.members[68]  ""  ETV
vector 496  SimphonyDHTNetwork.members[67]  ""  ETV
vector 497  SimphonyDHTNetwork.members[58]  ""  ETV
vector 498  SimphonyDHTNetwork.members[57]  ""  ETV
vector 499  SimphonyDHTNetwork.members[48]  ""  ETV
vector 500  SimphonyDHTNetwork.members[47]  ""  ETV
vector 501  SimphonyDHTNetwork.members[38]  ""  ETV
vector 502  SimphonyDHTNetwork.members[37]  ""  ETV
vector 503  SimphonyDHTNetwork.members[28]  ""  ETV
vector 504  SimphonyDHTNetwork.members[27]  ""  ETV
vector 505  SimphonyDHTNetwork.members[18]  ""  ETV
vector 506  SimphonyDHTNetwork.members[17]  ""  ETV
vector 507  SimphonyDHTNetwork.members[8]  ""  ETV
vector 508  SimphonyDHTNetwork.members[7]  ""  ETV
vector 509  SimphonyDHTNetwork.members[793]  ""  ETV
vector 510  SimphonyDHTNetwork.members[792]  ""  ETV
vector 511  SimphonyDHTNetwork.members[783]  ""  ETV
vector 512  SimphonyDHTNetwork.members[782]  ""  ETV
vector 513  SimphonyDHTNetwork.members[773]  ""  ETV
vector 514  SimphonyDHTNetwork.members[772]  ""  ETV
vector 515  SimphonyDHTNetwork.members[763]  ""  ETV
vector 516  SimphonyDHTNetwork.members[762]  ""  ETV
vector 517  SimphonyDHTNetwork.members[753]  ""  ETV
vector 518  SimphonyDHTNetwork.members[752]  ""  ETV
vector 519  SimphonyDHTNetwork.members[743]  ""  ETV
vector 520  SimphonyDHTNetwork.members[742]  ""  ETV
vector 521  SimphonyDHTNetwork.members[733]  ""  ETV
vector 522  SimphonyDHTNetwork.members[732]  ""  ETV
vector 523  SimphonyDHTNetwork.members[723]  ""  ETV
vector 524  SimphonyDHTNetwork.members[722]  ""  ETV
vector 525  SimphonyDHTNetwork.members[713]  ""  ETV
vector 526  SimphonyDHTNetwork.members[712]  ""  ETV
vector 527  SimphonyDHTNetwork.members[703]  ""  ETV
vector 528  SimphonyDHTNetwork.members[702]  ""  ETV
vector 529  SimphonyDHTNetwork.members[693]  ""  ETV
vector 530  SimphonyDHTNetwork.members[692]  ""  ETV
vector 531  SimphonyDHTNetwork.members[683]  ""  ETV
vector 532  SimphonyDHTNetwork.members[682]  ""  ETV
vector 533  SimphonyDHTNetwork.members[673]  ""  ETV
vector 534  SimphonyDHTNetwork.members[672]  ""  ETV
vector 535  SimphonyDHTNetwork.members[663]  ""  ETV
vector 536  SimphonyDHTNetwork.members[662]  ""  ETV
vector 537  SimphonyDHTNetwork.members[653]  ""  ETV
vector 538  SimphonyDHTNetwork.members[652]  ""  ETV
vector 539  SimphonyDHTNetwork.members[643]  ""  ETV
vector 540  SimphonyDHTNetwork.members[642]  ""  ETV
vector 541  SimphonyDHTNetwork.members[633]  ""  ETV
vector 542  SimphonyDHTNetwork.members[632]  ""  ETV
vector 543  SimphonyDHTNetwork.members[623]  ""  ETV
vector 544  SimphonyDHTNetwork.members[622]  ""  ETV
vector 545  SimphonyDHTNetwork.members[613]  ""  ETV
vector 546  SimphonyDHTNetwork.members[612]  ""  ETV
vector 547  SimphonyDHTNetwork.members[603]  ""  ETV
vector 548  SimphonyDHTNetwork.members[602]  ""  ETV
vector 549  SimphonyDHTNetwork.members[593]  ""  ETV
vector 550  SimphonyDHTNetwork.members[592]  ""  ETV
vector 551  SimphonyDHTNetwork.members[583]  ""  ETV
vector 552  SimphonyDHTNetwork.members[582]  ""  ETV
vector 553  SimphonyDHTNetwork.members[573]  ""  ETV
vector 554  SimphonyDHTNetwork.members[572]  ""  ETV
vector 555  SimphonyDHTNetwork.members[563]  ""  ETV
vector 556  SimphonyDHTNetwork.members[562]  ""  ETV
vector 557  SimphonyDHTNetwork.members[553]  ""  ETV
vector 558  SimphonyDHTNetwork.members[552]  ""  ETV
vector 559  SimphonyDHTNetwork.members[543]  ""  ETV