version 2
run allAtOnce-75-20130122-19:26:31-3209
attr configname allAtOnce
attr datetime 20130122-19:26:31
attr experiment allAtOnce
attr inifile omnetpp.ini
attr iterationvars "$0=256, $1=intuniform(100, 500)"
attr iterationvars2 "$0=256, $1=intuniform(100, 500), $repetition=0"
attr measurement "$0=256, $1=intuniform(100, 500)"
attr network SimphonyDHTNetwork
attr processid 3209
attr repetition 0
attr replication #0
attr resultdir results
attr runnumber 75
attr seedset 75

vector 0  SimphonyDHTNetwork.members[51]  ""  ETV
vector 1  SimphonyDHTNetwork.members[52]  ""  ETV
vector 2  SimphonyDHTNetwork.members[53]  ""  ETV
vector 3  SimphonyDHTNetwork.members[42]  ""  ETV
vector 4  SimphonyDHTNetwork.members[43]  ""  ETV
vector 5  SimphonyDHTNetwork.members[44]  ""  ETV
vector 6  SimphonyDHTNetwork.members[60]  ""  ETV
vector 7  SimphonyDHTNetwork.members[61]  ""  ETV
vector 8  SimphonyDHTNetwork.members[62]  ""  ETV
vector 9  SimphonyDHTNetwork.members[41]  ""  ETV
vector 10  SimphonyDHTNetwork.members[32]  ""  ETV
vector 11  SimphonyDHTNetwork.members[33]  ""  ETV
vector 12  SimphonyDHTNetwork.members[34]  ""  ETV
vector 13  SimphonyDHTNetwork.members[50]  ""  ETV
vector 14  SimphonyDHTNetwork.members[31]  ""  ETV
vector 15  SimphonyDHTNetwork.members[22]  ""  ETV
vector 16  SimphonyDHTNetwork.members[23]  ""  ETV
vector 17  SimphonyDHTNetwork.members[24]  ""  ETV
vector 18  SimphonyDHTNetwork.members[40]  ""  ETV
vector 19  SimphonyDHTNetwork.members[21]  ""  ETV
vector 20  SimphonyDHTNetwork.members[12]  ""  ETV
vector 21  SimphonyDHTNetwork.members[13]  ""  ETV
vector 22  SimphonyDHTNetwork.members[14]  ""  ETV
vector 23  SimphonyDHTNetwork.members[30]  ""  ETV
vector 24  SimphonyDHTNetwork.members[11]  ""  ETV
vector 25  SimphonyDHTNetwork.members[65]  ""  ETV
vector 26  SimphonyDHTNetwork.members[10]  ""  ETV
vector 27  SimphonyDHTNetwork.members[1]  ""  ETV
vector 28  SimphonyDHTNetwork.members[2]  ""  ETV
vector 29  SimphonyDHTNetwork.members[3]  ""  ETV
vector 30  SimphonyDHTNetwork.members[19]  ""  ETV
vector 31  SimphonyDHTNetwork.members[20]  ""  ETV
vector 32  SimphonyDHTNetwork.members[0]  ""  ETV
vector 33  SimphonyDHTNetwork.members[9]  ""  ETV
vector 34  SimphonyDHTNetwork.members[63]  ""  ETV
vector 35  SimphonyDHTNetwork.members[8]  ""  ETV
vector 36  SimphonyDHTNetwork.members[54]  ""  ETV
vector 37  SimphonyDHTNetwork.members[55]  ""  ETV
vector 38  SimphonyDHTNetwork.members[45]  ""  ETV
vector 39  SimphonyDHTNetwork.members[59]  ""  ETV
vector 40  SimphonyDHTNetwork.members[49]  ""  ETV
vector 41  SimphonyDHTNetwork.members[58]  ""  ETV
vector 42  SimphonyDHTNetwork.members[48]  ""  ETV
vector 43  SimphonyDHTNetwork.members[39]  ""  ETV
vector 44  SimphonyDHTNetwork.members[57]  ""  ETV
vector 45  SimphonyDHTNetwork.members[47]  ""  ETV
vector 46  SimphonyDHTNetwork.members[38]  ""  ETV
vector 47  SimphonyDHTNetwork.members[56]  ""  ETV
vector 48  SimphonyDHTNetwork.members[46]  ""  ETV
vector 49  SimphonyDHTNetwork.members[37]  ""  ETV
vector 50  SimphonyDHTNetwork.members[64]  ""  ETV
vector 51  SimphonyDHTNetwork.members[29]  ""  ETV
vector 52  SimphonyDHTNetwork.members[28]  ""  ETV
vector 53  SimphonyDHTNetwork.members[36]  ""  ETV
vector 54  SimphonyDHTNetwork.members[27]  ""  ETV
vector 55  SimphonyDHTNetwork.members[35]  ""  ETV
vector 56  SimphonyDHTNetwork.members[26]  ""  ETV
vector 57  SimphonyDHTNetwork.members[25]  ""  ETV
vector 58  SimphonyDHTNetwork.members[15]  ""  ETV
vector 59  SimphonyDHTNetwork.members[16]  ""  ETV
vector 60  SimphonyDHTNetwork.members[4]  ""  ETV
vector 61  SimphonyDHTNetwork.members[5]  ""  ETV
vector 62  SimphonyDHTNetwork.members[6]  ""  ETV
vector 63  SimphonyDHTNetwork.members[7]  ""  ETV
vector 64  SimphonyDHTNetwork.members[67]  ""  ETV
vector 65  SimphonyDHTNetwork.members[18]  ""  ETV
vector 66  SimphonyDHTNetwork.members[17]  ""  ETV
vector 67  SimphonyDHTNetwork.members[66]  ""  ETV
vector 68  SimphonyDHTNetwork.members[69]  ""  ETV
vector 69  SimphonyDHTNetwork.members[68]  ""  ETV
vector 70  SimphonyDHTNetwork.members[70]  ""  ETV
vector 71  SimphonyDHTNetwork.members[73]  ""  ETV
vector 72  SimphonyDHTNetwork.members[71]  ""  ETV
vector 73  SimphonyDHTNetwork.members[72]  ""  ETV
vector 74  SimphonyDHTNetwork.members[77]  ""  ETV
vector 75  SimphonyDHTNetwork.members[74]  ""  ETV
vector 76  SimphonyDHTNetwork.members[75]  ""  ETV
vector 77  SimphonyDHTNetwork.members[76]  ""  ETV
vector 78  SimphonyDHTNetwork.members[79]  ""  ETV
vector 79  SimphonyDHTNetwork.members[80]  ""  ETV
vector 80  SimphonyDHTNetwork.members[78]  ""  ETV
vector 81  SimphonyDHTNetwork.members[83]  ""  ETV
vector 82  SimphonyDHTNetwork.members[82]  ""  ETV
vector 83  SimphonyDHTNetwork.members[84]  ""  ETV
vector 84  SimphonyDHTNetwork.members[81]  ""  ETV
vector 85  SimphonyDHTNetwork.members[87]  ""  ETV
vector 86  SimphonyDHTNetwork.members[85]  ""  ETV
vector 87  SimphonyDHTNetwork.members[89]  ""  ETV
vector 88  SimphonyDHTNetwork.members[86]  ""  ETV
vector 89  SimphonyDHTNetwork.members[90]  ""  ETV
vector 90  SimphonyDHTNetwork.members[88]  ""  ETV
vector 91  SimphonyDHTNetwork.members[91]  ""  ETV
vector 92  SimphonyDHTNetwork.members[92]  ""  ETV
vector 93  SimphonyDHTNetwork.members[93]  ""  ETV
vector 94  SimphonyDHTNetwork.members[94]  ""  ETV
vector 95  SimphonyDHTNetwork.members[95]  ""  ETV
vector 96  SimphonyDHTNetwork.members[96]  ""  ETV
vector 97  SimphonyDHTNetwork.members[97]  ""  ETV
vector 98  SimphonyDHTNetwork.members[98]  ""  ETV
vector 99  SimphonyDHTNetwork.members[100]  ""  ETV
vector 100  SimphonyDHTNetwork.members[99]  ""  ETV
vector 101  SimphonyDHTNetwork.members[102]  ""  ETV
vector 102  SimphonyDHTNetwork.members[101]  ""  ETV
vector 103  SimphonyDHTNetwork.members[103]  ""  ETV
vector 104  SimphonyDHTNetwork.members[106]  ""  ETV
vector 105  SimphonyDHTNetwork.members[104]  ""  ETV
vector 106  SimphonyDHTNetwork.members[105]  ""  ETV
vector 107  SimphonyDHTNetwork.members[109]  ""  ETV
vector 108  SimphonyDHTNetwork.members[108]  ""  ETV
vector 109  SimphonyDHTNetwork.members[107]  ""  ETV
vector 110  SimphonyDHTNetwork.members[110]  ""  ETV
vector 111  SimphonyDHTNetwork.members[111]  ""  ETV
vector 112  SimphonyDHTNetwork.members[112]  ""  ETV
vector 113  SimphonyDHTNetwork.members[115]  ""  ETV
vector 114  SimphonyDHTNetwork.members[114]  ""  ETV
vector 115  SimphonyDHTNetwork.members[113]  ""  ETV
vector 116  SimphonyDHTNetwork.members[116]  ""  ETV
vector 117  SimphonyDHTNetwork.members[118]  ""  ETV
vector 118  SimphonyDHTNetwork.members[117]  ""  ETV
vector 119  SimphonyDHTNetwork.members[119]  ""  ETV
vector 120  SimphonyDHTNetwork.members[120]  ""  ETV
vector 121  SimphonyDHTNetwork.members[122]  ""  ETV
vector 122  SimphonyDHTNetwork.members[121]  ""  ETV
vector 123  SimphonyDHTNetwork.members[124]  ""  ETV
vector 124  SimphonyDHTNetwork.members[123]  ""  ETV
vector 125  SimphonyDHTNetwork.members[125]  ""  ETV
vector 126  SimphonyDHTNetwork.members[127]  ""  ETV
vector 127  SimphonyDHTNetwork.members[128]  ""  ETV
vector 128  SimphonyDHTNetwork.members[126]  ""  ETV
vector 129  SimphonyDHTNetwork.members[130]  ""  ETV
vector 130  SimphonyDHTNetwork.members[129]  ""  ETV
vector 131  SimphonyDHTNetwork.members[133]  ""  ETV
vector 132  SimphonyDHTNetwork.members[131]  ""  ETV
vector 133  SimphonyDHTNetwork.members[132]  ""  ETV
vector 134  SimphonyDHTNetwork.members[136]  ""  ETV
vector 135  SimphonyDHTNetwork.members[134]  ""  ETV
vector 136  SimphonyDHTNetwork.members[135]  ""  ETV
vector 137  SimphonyDHTNetwork.members[138]  ""  ETV
vector 138  SimphonyDHTNetwork.members[137]  ""  ETV
vector 139  SimphonyDHTNetwork.members[141]  ""  ETV
vector 140  SimphonyDHTNetwork.members[139]  ""  ETV
vector 141  SimphonyDHTNetwork.members[140]  ""  ETV
vector 142  SimphonyDHTNetwork.members[143]  ""  ETV
vector 143  SimphonyDHTNetwork.members[142]  ""  ETV
vector 144  SimphonyDHTNetwork.members[144]  ""  ETV
vector 145  SimphonyDHTNetwork.members[145]  ""  ETV
vector 146  SimphonyDHTNetwork.members[149]  ""  ETV
vector 147  SimphonyDHTNetwork.members[147]  ""  ETV
vector 148  SimphonyDHTNetwork.members[146]  ""  ETV
vector 149  SimphonyDHTNetwork.members[148]  ""  ETV
vector 150  SimphonyDHTNetwork.members[152]  ""  ETV
vector 151  SimphonyDHTNetwork.members[151]  ""  ETV
vector 152  SimphonyDHTNetwork.members[150]  ""  ETV
vector 153  SimphonyDHTNetwork.members[153]  ""  ETV
vector 154  SimphonyDHTNetwork.members[155]  ""  ETV
vector 155  SimphonyDHTNetwork.members[154]  ""  ETV
vector 156  SimphonyDHTNetwork.members[157]  ""  ETV
vector 157  SimphonyDHTNetwork.members[156]  ""  ETV
vector 158  SimphonyDHTNetwork.members[158]  ""  ETV
vector 159  SimphonyDHTNetwork.members[160]  ""  ETV
vector 160  SimphonyDHTNetwork.members[161]  ""  ETV
vector 161  SimphonyDHTNetwork.members[162]  ""  ETV
vector 162  SimphonyDHTNetwork.members[159]  ""  ETV
vector 163  SimphonyDHTNetwork.members[163]  ""  ETV
vector 164  SimphonyDHTNetwork.members[166]  ""  ETV
vector 165  SimphonyDHTNetwork.members[164]  ""  ETV
vector 166  SimphonyDHTNetwork.members[167]  ""  ETV
vector 167  SimphonyDHTNetwork.members[165]  ""  ETV
vector 168  SimphonyDHTNetwork.members[168]  ""  ETV
vector 169  SimphonyDHTNetwork.members[170]  ""  ETV
vector 170  SimphonyDHTNetwork.members[171]  ""  ETV
vector 171  SimphonyDHTNetwork.members[169]  ""  ETV
vector 172  SimphonyDHTNetwork.members[172]  ""  ETV
vector 173  SimphonyDHTNetwork.members[173]  ""  ETV
vector 174  SimphonyDHTNetwork.members[174]  ""  ETV
vector 175  SimphonyDHTNetwork.members[175]  ""  ETV
vector 176  SimphonyDHTNetwork.members[178]  ""  ETV
vector 177  SimphonyDHTNetwork.members[176]  ""  ETV
vector 178  SimphonyDHTNetwork.members[177]  ""  ETV
vector 179  SimphonyDHTNetwork.members[180]  ""  ETV
vector 180  SimphonyDHTNetwork.members[181]  ""  ETV
vector 181  SimphonyDHTNetwork.members[179]  ""  ETV
vector 182  SimphonyDHTNetwork.members[182]  ""  ETV
vector 183  SimphonyDHTNetwork.members[183]  ""  ETV
vector 184  SimphonyDHTNetwork.members[186]  ""  ETV
vector 185  SimphonyDHTNetwork.members[184]  ""  ETV
vector 186  SimphonyDHTNetwork.members[185]  ""  ETV
vector 187  SimphonyDHTNetwork.members[187]  ""  ETV
vector 188  SimphonyDHTNetwork.members[188]  ""  ETV
vector 189  SimphonyDHTNetwork.members[189]  ""  ETV
vector 190  SimphonyDHTNetwork.members[191]  ""  ETV
vector 191  SimphonyDHTNetwork.members[190]  ""  ETV
vector 192  SimphonyDHTNetwork.members[195]  ""  ETV
vector 193  SimphonyDHTNetwork.members[193]  ""  ETV
vector 194  SimphonyDHTNetwork.members[194]  ""  ETV
vector 195  SimphonyDHTNetwork.members[192]  ""  ETV
vector 196  SimphonyDHTNetwork.members[196]  ""  ETV
vector 197  SimphonyDHTNetwork.members[199]  ""  ETV
vector 198  SimphonyDHTNetwork.members[197]  ""  ETV
vector 199  SimphonyDHTNetwork.members[198]  ""  ETV
vector 200  SimphonyDHTNetwork.members[201]  ""  ETV
vector 201  SimphonyDHTNetwork.members[200]  ""  ETV
vector 202  SimphonyDHTNetwork.members[203]  ""  ETV
vector 203  SimphonyDHTNetwork.members[202]  ""  ETV
vector 204  SimphonyDHTNetwork.members[204]  ""  ETV
vector 205  SimphonyDHTNetwork.members[205]  ""  ETV
vector 206  SimphonyDHTNetwork.members[207]  ""  ETV
vector 207  SimphonyDHTNetwork.members[206]  ""  ETV
vector 208  SimphonyDHTNetwork.members[210]  ""  ETV
vector 209  SimphonyDHTNetwork.members[208]  ""  ETV
vector 210  SimphonyDHTNetwork.members[209]  ""  ETV
vector 211  SimphonyDHTNetwork.members[211]  ""  ETV
vector 212  SimphonyDHTNetwork.members[212]  ""  ETV
vector 213  SimphonyDHTNetwork.members[213]  ""  ETV
vector 214  SimphonyDHTNetwork.members[216]  ""  ETV
vector 215  SimphonyDHTNetwork.members[214]  ""  ETV
vector 216  SimphonyDHTNetwork.members[215]  ""  ETV
vector 217  SimphonyDHTNetwork.members[217]  ""  ETV
vector 218  SimphonyDHTNetwork.members[219]  ""  ETV
vector 219  SimphonyDHTNetwork.members[218]  ""  ETV
vector 220  SimphonyDHTNetwork.members[220]  ""  ETV
vector 221  SimphonyDHTNetwork.members[223]  ""  ETV
vector 222  SimphonyDHTNetwork.members[222]  ""  ETV
vector 223  SimphonyDHTNetwork.members[221]  ""  ETV
vector 224  SimphonyDHTNetwork.members[224]  ""  ETV
vector 225  SimphonyDHTNetwork.members[226]  ""  ETV
vector 226  SimphonyDHTNetwork.members[225]  ""  ETV
vector 227  SimphonyDHTNetwork.members[229]  ""  ETV
vector 228  SimphonyDHTNetwork.members[227]  ""  ETV
vector 229  SimphonyDHTNetwork.members[228]  ""  ETV
vector 230  SimphonyDHTNetwork.members[230]  ""  ETV
vector 231  SimphonyDHTNetwork.members[231]  ""  ETV
vector 232  SimphonyDHTNetwork.members[233]  ""  ETV
vector 233  SimphonyDHTNetwork.members[232]  ""  ETV
vector 234  SimphonyDHTNetwork.members[234]  ""  ETV
vector 235  SimphonyDHTNetwork.members[237]  ""  ETV
vector 236  SimphonyDHTNetwork.members[235]  ""  ETV
vector 237  SimphonyDHTNetwork.members[236]  ""  ETV
vector 238  SimphonyDHTNetwork.members[239]  ""  ETV
vector 239  SimphonyDHTNetwork.members[238]  ""  ETV
vector 240  SimphonyDHTNetwork.members[240]  ""  ETV
vector 241  SimphonyDHTNetwork.members[241]  ""  ETV
vector 242  SimphonyDHTNetwork.members[242]  ""  ETV
vector 243  SimphonyDHTNetwork.members[243]  ""  ETV
vector 244  SimphonyDHTNetwork.members[244]  ""  ETV
vector 245  SimphonyDHTNetwork.members[247]  ""  ETV
vector 246  SimphonyDHTNetwork.members[245]  ""  ETV
vector 247  SimphonyDHTNetwork.members[246]  ""  ETV
vector 248  SimphonyDHTNetwork.members[248]  ""  ETV
vector 249  SimphonyDHTNetwork.members[249]  ""  ETV
vector 250  SimphonyDHTNetwork.members[250]  ""  ETV
vector 251  SimphonyDHTNetwork.members[251]  ""  ETV
vector 252  SimphonyDHTNetwork.members[253]  ""  ETV
vector 253  SimphonyDHTNetwork.members[254]  ""  ETV
vector 254  SimphonyDHTNetwork.members[252]  ""  ETV
vector 255  SimphonyDHTNetwork.members[255]  ""  ETV
0	2	6810.1	0
0	5	6810.4	1
0	31	6811	2
0	193	6816.8	3
0	196	6817.1	4
0	212	6817.3	5
0	214	6817.5	6
0	215	6817.6	6
0	224	6817.8	14
0	225	6817.8	14
0	226	6817.8	14
0	227	6817.8	14
0	228	6817.8	14
0	229	6817.8	14
0	230	6817.8	14
0	231	6817.8	14
0	237	6818.3	15
0	320	6821.1	16
0	590	6826.7	17
0	1517	7076.7	18
0	1675	7082.9	19
0	1754	7112	20
0	1787	7113.3	21
0	2066	7119.5	22
0	2266	7359.4	23
0	2771	7521	24
0	2820	7523.2	25
0	2931	7527.3	26
0	3021	7530.7	27
0	3289	7551.3	28
0	3423	7556.1	29
0	3557	7560.9	30
0	3721	7623.5	31
0	3724	7623.8	32
0	3740	7624	33
0	3742	7624.2	34
0	3743	7624.3	34
0	3752	7624.5	42
0	3753	7624.5	42
0	3754	7624.5	42
0	3755	7624.5	42
0	3756	7624.5	42
0	3757	7624.5	42
0	3758	7624.5	42
0	3759	7624.5	42
0	3765	7625	43
0	3785	7625.7	44
0	5445	8058.2	45
0	5741	8121.1	46
0	5744	8121.4	47
0	5770	8122	48
0	6005	8129.3	49
0	6008	8129.6	50
0	6034	8130.2	51
0	6174	8210.4	52
0	6338	8216.3	53
0	6341	8216.6	54
0	6367	8217.2	55
0	6554	8223.9	56
0	6557	8224.2	57
0	6583	8224.8	58
0	6686	8228.7	59
0	6689	8229	60
0	6715	8229.6	61
0	6894	8326.4	62
0	7513	8364.8	63
0	7609	8368.2	64
0	7684	8370.9	65
0	7778	8541.4	66
0	8030	8549.7	67
0	8049	8550	68
0	8096	8550.6	69
0	8652	8614.3	70
0	8681	8614.8	71
0	8988	8619.2	72
0	9142	8622.1	73
0	9189	8622.9	74
0	9229	8623.5	75
0	10392	8995.8	76
0	11294	9083.5	77
0	11322	9084.3	78
0	11398	9106.9	79
0	11404	9107.4	80
0	11406	9107.4	81
0	11411	9107.6	82
0	11412	9107.7	82
0	11416	9107.7	83
0	11418	9107.7	83
0	11421	9108	84
0	11425	9108	85
0	11427	9108.2	86
0	11428	9108.3	86
0	11430	9108.3	94
0	11438	9108.5	94
0	11439	9108.5	94
0	11440	9108.5	94
0	11441	9108.5	94
0	11442	9108.5	94
0	11443	9108.5	94
0	11444	9108.5	94
0	11456	9109	95
0	11633	9114.4	96
0	11635	9114.4	97
0	11638	9114.7	98
0	11644	9114.7	99
0	11646	9114.9	100
0	11647	9115	100
0	11649	9115	108
0	11657	9115.2	108
0	11658	9115.2	108
0	11659	9115.2	108
0	11660	9115.2	108
0	11661	9115.2	108
0	11662	9115.2	108
0	11663	9115.2	108
0	11675	9115.7	109
0	11852	9121.1	110
0	11854	9121.1	111
0	11857	9121.4	112
0	11982	9142.9	113
0	11985	9143.2	114
0	11991	9143.2	115
0	11993	9143.4	116
0	11994	9143.5	116
0	11996	9143.5	124
0	12004	9143.7	124
0	12005	9143.7	124
0	12006	9143.7	124
0	12007	9143.7	124
0	12008	9143.7	124
0	12009	9143.7	124
0	12010	9143.7	124
0	12016	9144.2	125
0	12057	9145.4	126
0	13430	9382.3	127
0	13433	9382.6	128
0	13439	9382.6	129
0	13441	9382.8	130
0	13442	9382.9	130
0	13444	9382.9	138
0	13452	9383.1	138
0	13453	9383.1	138
0	13454	9383.1	138
0	13455	9383.1	138
0	13456	9383.1	138
0	13457	9383.1	138
0	13458	9383.1	138
0	13464	9383.6	139
0	13603	9387.6	140
0	13655	9605.6	141
0	14261	9617.5	142
0	14648	9627.6	143
0	14653	9627.8	144
0	14655	9628	145
0	14656	9628.1	145
0	14665	9628.6	146
0	14669	9628.6	147
0	14673	9628.9	147
0	14677	9628.9	148
0	14682	9629.2	148
0	14812	9634	149
0	14898	9636.4	150
0	15260	9655.1	151
0	15450	9659.9	152
0	16875	9814.1	153
0	16878	9814.4	154
0	16884	9814.4	155
0	16886	9814.4	156
0	16887	9814.7	156
0	16892	9814.8	157
0	16898	9814.8	158
0	16900	9815.1	158
0	16904	9815.1	159
0	16908	9815.1	160
0	16910	9815.4	160
0	16912	9815.4	162
0	16917	9815.4	163
0	16918	9815.4	163
0	16932	9815.7	164
0	17105	9818.4	165
0	17265	9821.4	166
0	17275	9821.6	167
0	17277	9821.6	168
0	17290	9821.9	168
0	17294	9821.9	171
0	17295	9821.9	171
0	17296	9821.9	171
0	17319	9822.2	172
0	17489	9824.9	173
0	17492	9824.9	174
0	17496	9825.2	174
0	17500	9825.2	177
0	17501	9825.2	177
0	17502	9825.2	177
0	17508	9825.5	178
0	17529	9826.1	179
0	22672	11115	180
0	22673	11115.3	180
0	22677	11115.3	183
0	22678	11115.3	183
0	22679	11115.3	183
0	22685	11115.6	184
0	22958	11124	185
0	24377	11406.1	185
0	24380	11406.4	186
0	24386	11406.4	187
0	24388	11406.4	188
0	24389	11406.7	188
0	24393	11406.7	191
0	24394	11406.7	191
0	24395	11406.7	191
0	24401	11407	192
0	24422	11407.6	193
0	25443	11805	194
0	27735	12031.1	195
0	27755	12031.4	196
0	27761	12031.4	197
0	27763	12031.4	198
0	27767	12031.7	198
0	27771	12031.7	201
0	27772	12031.7	201
0	27773	12031.7	201
0	27796	12032	202
0	27974	12034.5	203
0	29756	12291.6	204
0	30698	12297.7	205
0	32024	12619.3	206
0	37033	13267.8	207
0	40911	13948.3	208
0	40914	13948.6	209
0	40920	13948.6	210
0	40922	13948.6	211
0	40923	13948.9	211
0	40939	13949.5	212
0	40945	13949.5	213
0	40947	13949.8	213
0	40951	13949.8	214
0	40956	13950.1	214
0	41089	13953.6	215
0	41222	13957.1	216
0	41343	14051.1	217
0	41346	14051.4	218
0	41352	14051.4	219
0	41354	14051.4	220
0	41355	14051.7	220
0	41359	14051.7	223
0	41360	14051.7	223
0	41361	14051.7	223
0	41367	14052	224
0	41455	14054.3	225
0	42328	14196.6	226
0	43663	14422.2	227
0	43666	14422.5	228
0	43672	14422.5	229
0	43674	14422.5	230
0	43675	14422.8	230
0	43683	14422.9	231
0	43689	14422.9	232
0	43691	14423.2	232
0	43695	14423.2	233
0	43700	14423.5	233
0	43823	14426.8	234
0	43895	14429	235
0	45406	14761.8	236
0	48617	15209.5	237
0	49411	15416.9	238
0	50153	15440.6	239
0	51255	15537.9	240
0	55820	16229	241
0	55878	16229.8	242
0	55880	16229.8	243
0	55886	16229.8	244
0	55901	16230.1	244
0	55908	16230.1	245
0	55910	16230.1	245
0	55921	16230.4	246
0	55927	16230.4	247
0	55929	16230.4	248
0	55948	16230.7	248
0	55954	16230.7	251
0	55955	16230.7	251
0	55956	16230.7	251
0	55978	16231	252
0	56130	16232.4	253
0	56133	16232.4	254
0	56156	16232.7	255
0	56171	16232.7	256
0	56174	16232.7	257
0	56179	16233	257
0	56197	16233	260
0	56198	16233	260
0	56199	16233	260
0	56222	16233.3	261
0	56374	16234.6	262
0	56377	16234.6	263
0	56392	16234.9	264
0	60439	16956.2	265
0	62045	17192.2	266
0	62064	17192.8	267
0	62067	17193.1	268
0	62193	17196.7	269
0	62196	17197	270
0	62258	17198.8	271
0	62261	17199.1	272
0	62267	17199.1	273
0	62269	17199.1	274
0	62270	17199.4	274
0	62274	17199.4	277
0	62275	17199.4	277
0	62276	17199.4	277
0	62282	17199.7	278
0	62472	17205	279
0	64130	17454.5	280
0	64133	17454.8	281
0	64139	17454.8	282
0	64141	17454.8	283
0	64142	17455.1	283
0	64146	17455.1	286
0	64147	17455.1	286
0	64148	17455.1	286
0	64154	17455.4	287
0	64251	17458	288
0	66196	17581	290
0	66197	17581.3	290
0	66201	17581.3	293
0	66202	17581.3	293
0	66203	17581.3	293
0	66209	17581.6	294
0	66280	17583.8	295
0	67229	17714.3	295
0	71236	18513.2	296
0	71239	18513.5	297
0	71245	18513.5	298
0	71247	18513.5	299
0	71248	18513.8	299
0	71252	18513.8	302
0	71253	18513.8	302
0	71254	18513.8	302
0	71260	18514.1	303
0	71465	18519.7	304
0	72561	18730.9	305
0	72573	18731.2	306
0	72581	18731.2	307
0	72583	18731.2	308
0	72585	18731.5	308
0	72599	18731.5	311
0	72600	18731.5	311
0	72601	18731.5	311
0	72616	18731.8	312
0	72941	18736.7	313
0	72945	18736.7	314
0	72954	18737	315
0	72964	18737	316
0	72968	18737	317
0	72970	18737.3	317
0	72977	18737.3	320
0	72978	18737.3	320
0	72979	18737.3	320
0	72991	18737.6	321
0	73376	18743.8	322
0	73902	18888.3	323
0	78512	19393	325
0	78513	19393.3	325
0	78517	19393.3	328
0	78518	19393.3	328
0	78519	19393.3	328
0	78525	19393.6	329
0	78723	19398.9	330
0	78974	19465.3	330
0	82577	19773.8	331
0	82587	19774.1	332
0	82595	19774.1	333
0	82598	19774.1	334
0	82600	19774.4	334
0	82612	19774.4	337
0	82613	19774.4	337
0	82614	19774.4	337
0	82628	19774.7	338
0	83079	19784.6	339
0	83415	19793.3	340
0	95931	21301.9	341
0	95934	21302.2	342
0	95940	21302.2	343
0	95942	21302.2	344
0	95943	21302.5	344
0	95947	21302.5	347
0	95948	21302.5	347
0	95949	21302.5	347
0	95955	21302.8	348
0	96253	21310.7	349
0	96403	21317.2	350
0	103189	22234.8	351
0	103192	22235.1	352
0	103198	22235.1	353
0	103200	22235.1	354
0	103201	22235.4	354
0	103205	22235.4	357
0	103206	22235.4	357
0	103207	22235.4	357
0	103212	22235.7	358
0	103248	22236.4	359
0	103773	22242.8	360
0	103821	22243.7	361
0	108143	22697.4	362
0	108165	22697.7	363
0	108176	22697.7	364
0	108180	22697.7	365
0	108194	22698	365
0	108202	22698	368
0	108203	22698	368
0	108204	22698	368
0	108226	22698.3	369
0	108497	22701	370
0	115039	23451.6	371
0	115042	23451.9	372
0	115048	23451.9	373
0	115050	23451.9	374
0	115051	23452.2	374
0	115055	23452.2	377
0	115056	23452.2	377
0	115057	23452.2	377
0	115063	23452.5	378
0	115173	23455.4	379
0	123185	24427.4	380
0	123188	24427.7	381
0	123194	24427.7	382
0	123196	24427.7	383
0	123197	24428	383
0	123201	24428	386
0	123202	24428	386
0	123203	24428	386
0	123209	24428.3	387
0	123510	24436.3	388
0	123923	24484	390
0	123924	24484.3	390
0	123928	24484.3	393
0	123929	24484.3	393
0	123930	24484.3	393
0	123936	24484.6	394
0	123985	24485.8	395
0	136919	25714.5	395
0	136936	25714.8	396
0	136942	25714.8	397
0	136944	25714.8	398
0	136955	25715.1	398
0	136959	25715.1	401
0	136960	25715.1	401
0	136961	25715.1	401
0	136977	25715.4	402
0	137061	25716.3	403
1	3	6810.2	1
1	4	6810.3	1
1	13	6810.5	9
1	14	6810.5	9
1	15	6810.5	9
1	16	6810.5	9
1	17	6810.5	9
1	18	6810.5	9
1	19	6810.5	9
1	20	6810.5	9
1	32	6811	10
1	88	6813.1	11
1	173	6816.2	11
1	176	6816.5	12
1	192	6816.7	13
1	194	6816.9	14
1	195	6817	14
1	204	6817.2	22
1	205	6817.2	22
1	206	6817.2	22
1	207	6817.2	22
1	208	6817.2	22
1	209	6817.2	22
1	210	6817.2	22
1	211	6817.2	22
1	217	6817.7	23
1	321	6821.2	24
1	539	6825.8	25
1	547	6826.1	26
1	591	6826.7	27
1	1489	7075.8	28
1	1492	7076.1	29
1	1518	7076.7	30
1	1647	7082	31
1	1650	7082.3	32
1	1676	7082.9	33
1	1755	7112	34
1	1788	7113.3	35
1	2067	7119.5	36
1	2757	7520.4	37
1	2772	7521	38
1	3701	7622.9	39
1	3704	7623.2	40
1	3720	7623.4	41
1	3722	7623.6	42
1	3723	7623.7	42
1	3732	7623.9	50
1	3733	7623.9	50
1	3734	7623.9	50
1	3735	7623.9	50
1	3736	7623.9	50
1	3737	7623.9	50
1	3738	7623.9	50
1	3739	7623.9	50
1	3745	7624.4	51
1	3786	7625.8	52
1	5416	8057.3	53
1	5419	8057.6	54
1	5446	8058.2	55
1	5733	8120.8	56
1	5740	8121	57
1	5742	8121.2	58
1	5743	8121.3	58
1	5752	8121.5	66
1	5753	8121.5	66
1	5754	8121.5	66
1	5755	8121.5	66
1	5756	8121.5	66
1	5757	8121.5	66
1	5758	8121.5	66
1	5759	8121.5	66
1	5771	8122	67
1	5978	8128.2	68
1	5997	8129	69
1	6004	8129.2	70
1	6006	8129.4	71
1	6007	8129.5	71
1	6016	8129.7	79
1	6017	8129.7	79
1	6018	8129.7	79
1	6019	8129.7	79
1	6020	8129.7	79
1	6021	8129.7	79
1	6022	8129.7	79
1	6023	8129.7	79
1	6035	8130.2	80
1	6127	8133.1	81
1	6330	8216	82
1	6337	8216.2	83
1	6339	8216.4	84
1	6340	8216.5	84
1	6349	8216.7	92
1	6350	8216.7	92
1	6351	8216.7	92
1	6352	8216.7	92
1	6353	8216.7	92
1	6354	8216.7	92
1	6355	8216.7	92
1	6356	8216.7	92
1	6368	8217.2	93
1	6529	8222.8	94
1	6546	8223.6	95
1	6553	8223.8	96
1	6555	8224	97
1	6556	8224.1	97
1	6565	8224.3	105
1	6566	8224.3	105
1	6567	8224.3	105
1	6568	8224.3	105
1	6569	8224.3	105
1	6570	8224.3	105
1	6571	8224.3	105
1	6572	8224.3	105
1	6584	8224.8	106
1	6661	8227.6	107
1	6678	8228.4	108
1	6685	8228.6	109
1	6687	8228.8	110
1	6688	8228.9	110
1	6697	8229.1	118
1	6698	8229.1	118
1	6699	8229.1	118
1	6700	8229.1	118
1	6701	8229.1	118
1	6702	8229.1	118
1	6703	8229.1	118
1	6704	8229.1	118
1	6716	8229.6	119
1	6793	8232.4	120
1	6865	8325.5	121
1	6868	8325.8	122
1	6895	8326.4	123
1	7453	8362.5	124
1	7456	8362.8	125
1	7514	8364.8	126
1	7610	8368.2	127
1	7685	8370.9	128
1	8018	8549.4	129
1	8027	8549.6	130
1	8039	8549.8	131
1	8040	8549.9	131
1	8058	8550.1	139
1	8059	8550.1	139
1	8060	8550.1	139
1	8061	8550.1	139
1	8062	8550.1	139
1	8063	8550.1	139
1	8064	8550.1	139
1	8065	8550.1	139
1	8097	8550.6	140
1	8213	8552.7	141
1	8653	8614.3	142
1	8682	8614.8	143
1	9143	8622.1	144
1	9190	8622.9	145
1	11295	9083.5	146
1	11323	9084.3	147
1	11380	9106.3	148
1	11383	9106.6	149
1	11397	9106.8	150
1	11399	9107	151
1	11400	9107.1	151
1	11405	9107.4	152
1	11409	9107.4	153
1	11413	9107.7	153
1	11417	9107.7	154
1	11422	9108	154
1	11639	9114.7	155
1	11858	9121.4	156
1	11986	9143.2	157
1	13404	9381.6	158
1	13411	9381.8	159
1	13413	9381.8	160
1	13414	9382.1	160
1	13416	9382.1	167
1	13423	9382.3	167
1	13424	9382.3	167
1	13425	9382.3	167
1	13426	9382.3	167
1	13427	9382.3	167
1	13428	9382.3	167
1	13434	9382.6	168
1	13605	9387.6	169
1	13627	9604.7	170
1	13630	9605	171
1	13656	9605.6	172
1	14359	9621	173
1	15451	9659.9	174
1	16879	9814.4	175
1	17234	9820.5	176
1	23838	11252.7	177
1	24339	11405.1	178
1	24344	11405.4	179
1	24358	11405.6	180
1	24360	11405.6	181
1	24361	11405.9	181
1	24363	11405.9	188
1	24370	11406.1	188
1	24371	11406.1	188
1	24372	11406.1	188
1	24373	11406.1	188
1	24374	11406.1	188
1	24375	11406.1	188
1	24381	11406.4	189
1	24424	11407.6	190
1	25432	11804.5	191
1	25447	11805.1	192
1	25461	11805.7	193
1	26092	11827	194
1	26102	11827.2	195
1	26106	11827.2	196
1	26108	11827.3	196
1	26115	11827.5	197
1	26116	11827.5	204
1	26119	11827.5	205
1	26120	11827.5	205
1	26127	11827.7	205
1	26128	11827.7	205
1	26129	11827.7	205
1	26130	11827.7	205
1	26131	11827.7	205
1	26132	11827.7	205
1	26133	11827.8	206
1	26136	11827.8	213
1	26144	11828	213
1	26145	11828	213
1	26146	11828	213
1	26147	11828	213
1	26148	11828	213
1	26149	11828	213
1	26160	11828.2	214
1	26178	11828.5	215
1	26234	11829.6	216
1	26298	11830.7	217
1	26317	11830.9	218
1	26320	11830.9	219
1	26331	11831.2	219
1	26340	11831.2	226
1	26350	11831.4	226
1	26351	11831.4	226
1	26352	11831.4	226
1	26353	11831.4	226
1	26354	11831.4	226
1	26355	11831.4	226
1	26387	11831.9	227
1	26466	11833.2	228
1	26544	11834.6	229
1	26563	11834.8	230
1	26566	11834.8	231
1	26571	11835.1	231
1	26574	11835.1	238
1	26582	11835.3	238
1	26583	11835.3	238
1	26584	11835.3	238
1	26585	11835.3	238
1	26586	11835.3	238
1	26587	11835.3	238
1	26592	11835.5	239
1	26607	11835.8	240
1	26654	11836.6	241
1	26663	11836.8	242
1	26666	11836.8	243
1	26675	11837.1	243
1	26684	11837.1	250
1	26694	11837.3	250
1	26695	11837.3	250
1	26696	11837.3	250
1	26697	11837.3	250
1	26698	11837.3	250
1	26699	11837.3	250
1	26728	11837.8	251
1	26802	11839.1	252
1	26882	11840.5	253
1	26903	11840.7	254
1	26906	11840.7	255
1	26911	11841	255
1	26914	11841	262
1	26922	11841.2	262
1	26923	11841.2	262
1	26924	11841.2	262
1	26925	11841.2	262
1	26926	11841.2	262
1	26927	11841.2	262
1	26932	11841.4	263
1	26945	11841.7	264
1	27046	11844.9	265
1	27398	12022.4	266
1	27678	12030.4	267
1	27701	12030.6	268
1	27705	12030.6	269
1	27707	12030.9	269
1	27714	12030.9	276
1	27727	12031.1	276
1	27728	12031.1	276
1	27729	12031.1	276
1	27730	12031.1	276
1	27731	12031.1	276
1	27732	12031.1	276
1	27756	12031.4	277
1	27976	12034.5	278
1	29672	12291.1	279
1	29762	12291.7	280
1	29850	12292.3	281
1	29865	12292.4	282
1	29914	12292.7	283
1	30330	12295.3	284
1	30473	12296.1	285
1	30622	12297.2	286
1	30704	12297.8	287
1	30790	12298.4	288
1	31156	12303.6	289
1	32013	12618.8	290
1	32028	12619.4	291
1	33867	12763	293
1	33868	12763.3	293
1	33870	12763.3	298
1	33875	12763.5	298
1	33876	12763.5	298
1	33877	12763.5	298
1	33878	12763.5	298
1	33892	12764	299
1	33993	12767.2	300
1	37022	13267.3	300
1	37037	13267.9	301
1	38346	13581	303
1	38347	13581.3	303
1	38349	13581.3	308
1	38354	13581.5	308
1	38355	13581.5	308
1	38356	13581.5	308
1	38357	13581.5	308
1	38371	13582	309
1	38383	13582.7	310
1	39250	13766.5	310
1	40879	13947.3	311
1	40884	13947.6	312
1	40896	13947.8	313
1	40898	13947.8	314
1	40899	13948.1	314
1	40901	13948.1	319
1	40906	13948.3	319
1	40907	13948.3	319
1	40908	13948.3	319
1	40909	13948.3	319
1	40915	13948.6	320
1	40925	13948.9	321
1	41311	14050.1	322
1	41316	14050.4	323
1	41328	14050.6	324
1	41330	14050.6	325
1	41331	14050.9	325
1	41333	14050.9	330
1	41338	14051.1	330
1	41339	14051.1	330
1	41340	14051.1	330
1	41341	14051.1	330
1	41347	14051.4	331
1	41457	14054.3	332
1	42048	14191.1	333
1	42316	14196.1	334
1	42332	14196.7	335
1	43301	14345.7	336
1	43667	14422.5	337
1	45381	14761.3	338
1	45421	14761.9	339
1	45902	14937.1	340
1	45907	14937.4	341
1	49399	15416.4	342
1	49415	15417	343
1	50157	15440.7	344
1	51432	15777.1	345
1	51448	15777.7	346
1	51455	15778	347
1	51621	15782.8	348
1	51628	15783.1	349
1	51747	15786.6	350
1	52275	15842.7	351
1	55691	16228	352
1	55722	16228.3	353
1	55753	16228.5	354
1	55755	16228.5	355
1	55788	16228.8	355
1	55791	16228.8	360
1	55806	16229	360
1	55807	16229	360
1	55808	16229	360
1	55809	16229	360
1	55846	16229.3	361
1	57762	16488.3	362
1	58436	16751	363
1	58443	16751.3	364
1	59288	16923.4	365
1	60388	16955.5	366
1	60408	16955.8	367
1	60432	16956	368
1	60434	16956	369
1	60447	16956.3	369
1	60448	16956.3	374
1	60450	16956.3	375
1	60453	16956.3	376
1	60465	16956.5	376
1	60466	16956.5	376
1	60467	16956.5	376
1	60468	16956.5	376
1	60469	16956.5	377
1	60471	16956.5	378
1	60484	16956.8	378
1	60487	16956.8	383
1	60503	16957	383