file 14165649 1358878941                                        
version 2
run allAtOnce-50-20130122-19:22:09-3044
attr configname allAtOnce
attr datetime 20130122-19:22:09
attr experiment allAtOnce
attr inifile omnetpp.ini
attr iterationvars "$0=512, $1=1000"
attr iterationvars2 "$0=512, $1=1000, $repetition=0"
attr measurement "$0=512, $1=1000"
attr network SimphonyDHTNetwork
attr processid 3044
attr repetition 0
attr replication #0
attr resultdir results
attr runnumber 50
attr seedset 50

vector 0  SimphonyDHTNetwork.members[46]  ""  ETV
vector 1  SimphonyDHTNetwork.members[47]  ""  ETV
vector 2  SimphonyDHTNetwork.members[48]  ""  ETV
vector 3  SimphonyDHTNetwork.members[37]  ""  ETV
vector 4  SimphonyDHTNetwork.members[38]  ""  ETV
vector 5  SimphonyDHTNetwork.members[39]  ""  ETV
vector 6  SimphonyDHTNetwork.members[55]  ""  ETV
vector 7  SimphonyDHTNetwork.members[56]  ""  ETV
vector 8  SimphonyDHTNetwork.members[57]  ""  ETV
vector 9  SimphonyDHTNetwork.members[67]  ""  ETV
vector 10  SimphonyDHTNetwork.members[54]  ""  ETV
vector 11  SimphonyDHTNetwork.members[45]  ""  ETV
vector 12  SimphonyDHTNetwork.members[63]  ""  ETV
vector 13  SimphonyDHTNetwork.members[44]  ""  ETV
vector 14  SimphonyDHTNetwork.members[35]  ""  ETV
vector 15  SimphonyDHTNetwork.members[36]  ""  ETV
vector 16  SimphonyDHTNetwork.members[53]  ""  ETV
vector 17  SimphonyDHTNetwork.members[43]  ""  ETV
vector 18  SimphonyDHTNetwork.members[34]  ""  ETV
vector 19  SimphonyDHTNetwork.members[52]  ""  ETV
vector 20  SimphonyDHTNetwork.members[42]  ""  ETV
vector 21  SimphonyDHTNetwork.members[33]  ""  ETV
vector 22  SimphonyDHTNetwork.members[51]  ""  ETV
vector 23  SimphonyDHTNetwork.members[41]  ""  ETV
vector 24  SimphonyDHTNetwork.members[25]  ""  ETV
vector 25  SimphonyDHTNetwork.members[26]  ""  ETV
vector 26  SimphonyDHTNetwork.members[27]  ""  ETV
vector 27  SimphonyDHTNetwork.members[24]  ""  ETV
vector 28  SimphonyDHTNetwork.members[32]  ""  ETV
vector 29  SimphonyDHTNetwork.members[23]  ""  ETV
vector 30  SimphonyDHTNetwork.members[31]  ""  ETV
vector 31  SimphonyDHTNetwork.members[15]  ""  ETV
vector 32  SimphonyDHTNetwork.members[16]  ""  ETV
vector 33  SimphonyDHTNetwork.members[17]  ""  ETV
vector 34  SimphonyDHTNetwork.members[14]  ""  ETV
vector 35  SimphonyDHTNetwork.members[5]  ""  ETV
vector 36  SimphonyDHTNetwork.members[6]  ""  ETV
vector 37  SimphonyDHTNetwork.members[7]  ""  ETV
vector 38  SimphonyDHTNetwork.members[13]  ""  ETV
vector 39  SimphonyDHTNetwork.members[4]  ""  ETV
vector 40  SimphonyDHTNetwork.members[22]  ""  ETV
vector 41  SimphonyDHTNetwork.members[12]  ""  ETV
vector 42  SimphonyDHTNetwork.members[3]  ""  ETV
vector 43  SimphonyDHTNetwork.members[21]  ""  ETV
vector 44  SimphonyDHTNetwork.members[11]  ""  ETV
vector 45  SimphonyDHTNetwork.members[2]  ""  ETV
vector 46  SimphonyDHTNetwork.members[20]  ""  ETV
vector 47  SimphonyDHTNetwork.members[10]  ""  ETV
vector 48  SimphonyDHTNetwork.members[65]  ""  ETV
vector 49  SimphonyDHTNetwork.members[29]  ""  ETV
vector 50  SimphonyDHTNetwork.members[30]  ""  ETV
vector 51  SimphonyDHTNetwork.members[40]  ""  ETV
vector 52  SimphonyDHTNetwork.members[19]  ""  ETV
vector 53  SimphonyDHTNetwork.members[28]  ""  ETV
vector 54  SimphonyDHTNetwork.members[18]  ""  ETV
vector 55  SimphonyDHTNetwork.members[9]  ""  ETV
vector 56  SimphonyDHTNetwork.members[8]  ""  ETV
vector 57  SimphonyDHTNetwork.members[1]  ""  ETV
vector 58  SimphonyDHTNetwork.members[0]  ""  ETV
vector 59  SimphonyDHTNetwork.members[62]  ""  ETV
vector 60  SimphonyDHTNetwork.members[61]  ""  ETV
vector 61  SimphonyDHTNetwork.members[66]  ""  ETV
vector 62  SimphonyDHTNetwork.members[58]  ""  ETV
vector 63  SimphonyDHTNetwork.members[59]  ""  ETV
vector 64  SimphonyDHTNetwork.members[49]  ""  ETV
vector 65  SimphonyDHTNetwork.members[50]  ""  ETV
vector 66  SimphonyDHTNetwork.members[60]  ""  ETV
vector 67  SimphonyDHTNetwork.members[69]  ""  ETV
vector 68  SimphonyDHTNetwork.members[70]  ""  ETV
vector 69  SimphonyDHTNetwork.members[73]  ""  ETV
vector 70  SimphonyDHTNetwork.members[75]  ""  ETV
vector 71  SimphonyDHTNetwork.members[64]  ""  ETV
vector 72  SimphonyDHTNetwork.members[78]  ""  ETV
vector 73  SimphonyDHTNetwork.members[71]  ""  ETV
vector 74  SimphonyDHTNetwork.members[72]  ""  ETV
vector 75  SimphonyDHTNetwork.members[74]  ""  ETV
vector 76  SimphonyDHTNetwork.members[76]  ""  ETV
vector 77  SimphonyDHTNetwork.members[87]  ""  ETV
vector 78  SimphonyDHTNetwork.members[89]  ""  ETV
vector 79  SimphonyDHTNetwork.members[86]  ""  ETV
vector 80  SimphonyDHTNetwork.members[80]  ""  ETV
vector 81  SimphonyDHTNetwork.members[79]  ""  ETV
vector 82  SimphonyDHTNetwork.members[94]  ""  ETV
vector 83  SimphonyDHTNetwork.members[68]  ""  ETV
vector 84  SimphonyDHTNetwork.members[95]  ""  ETV
vector 85  SimphonyDHTNetwork.members[93]  ""  ETV
vector 86  SimphonyDHTNetwork.members[97]  ""  ETV
vector 87  SimphonyDHTNetwork.members[77]  ""  ETV
vector 88  SimphonyDHTNetwork.members[84]  ""  ETV
vector 89  SimphonyDHTNetwork.members[98]  ""  ETV
vector 90  SimphonyDHTNetwork.members[100]  ""  ETV
vector 91  SimphonyDHTNetwork.members[82]  ""  ETV
vector 92  SimphonyDHTNetwork.members[92]  ""  ETV
vector 93  SimphonyDHTNetwork.members[103]  ""  ETV
vector 94  SimphonyDHTNetwork.members[90]  ""  ETV
vector 95  SimphonyDHTNetwork.members[101]  ""  ETV
vector 96  SimphonyDHTNetwork.members[106]  ""  ETV
vector 97  SimphonyDHTNetwork.members[81]  ""  ETV
vector 98  SimphonyDHTNetwork.members[104]  ""  ETV
vector 99  SimphonyDHTNetwork.members[110]  ""  ETV
vector 100  SimphonyDHTNetwork.members[99]  ""  ETV
vector 101  SimphonyDHTNetwork.members[102]  ""  ETV
vector 102  SimphonyDHTNetwork.members[112]  ""  ETV
vector 103  SimphonyDHTNetwork.members[85]  ""  ETV
vector 104  SimphonyDHTNetwork.members[88]  ""  ETV
vector 105  SimphonyDHTNetwork.members[91]  ""  ETV
vector 106  SimphonyDHTNetwork.members[118]  ""  ETV
vector 107  SimphonyDHTNetwork.members[111]  ""  ETV
vector 108  SimphonyDHTNetwork.members[115]  ""  ETV
vector 109  SimphonyDHTNetwork.members[121]  ""  ETV
vector 110  SimphonyDHTNetwork.members[120]  ""  ETV
vector 111  SimphonyDHTNetwork.members[116]  ""  ETV
vector 112  SimphonyDHTNetwork.members[96]  ""  ETV
vector 113  SimphonyDHTNetwork.members[123]  ""  ETV
vector 114  SimphonyDHTNetwork.members[122]  ""  ETV
vector 115  SimphonyDHTNetwork.members[119]  ""  ETV
vector 116  SimphonyDHTNetwork.members[114]  ""  ETV
vector 117  SimphonyDHTNetwork.members[108]  ""  ETV
vector 118  SimphonyDHTNetwork.members[124]  ""  ETV
vector 119  SimphonyDHTNetwork.members[105]  ""  ETV
vector 120  SimphonyDHTNetwork.members[127]  ""  ETV
vector 121  SimphonyDHTNetwork.members[125]  ""  ETV
vector 122  SimphonyDHTNetwork.members[126]  ""  ETV
vector 123  SimphonyDHTNetwork.members[83]  ""  ETV
vector 124  SimphonyDHTNetwork.members[129]  ""  ETV
vector 125  SimphonyDHTNetwork.members[117]  ""  ETV
vector 126  SimphonyDHTNetwork.members[137]  ""  ETV
vector 127  SimphonyDHTNetwork.members[130]  ""  ETV
vector 128  SimphonyDHTNetwork.members[132]  ""  ETV
vector 129  SimphonyDHTNetwork.members[107]  ""  ETV
vector 130  SimphonyDHTNetwork.members[138]  ""  ETV
vector 131  SimphonyDHTNetwork.members[141]  ""  ETV
vector 132  SimphonyDHTNetwork.members[139]  ""  ETV
vector 133  SimphonyDHTNetwork.members[131]  ""  ETV
vector 134  SimphonyDHTNetwork.members[144]  ""  ETV
vector 135  SimphonyDHTNetwork.members[133]  ""  ETV
vector 136  SimphonyDHTNetwork.members[135]  ""  ETV
vector 137  SimphonyDHTNetwork.members[149]  ""  ETV
vector 138  SimphonyDHTNetwork.members[140]  ""  ETV
vector 139  SimphonyDHTNetwork.members[109]  ""  ETV
vector 140  SimphonyDHTNetwork.members[145]  ""  ETV
vector 141  SimphonyDHTNetwork.members[156]  ""  ETV
vector 142  SimphonyDHTNetwork.members[147]  ""  ETV
vector 143  SimphonyDHTNetwork.members[158]  ""  ETV
vector 144  SimphonyDHTNetwork.members[146]  ""  ETV
vector 145  SimphonyDHTNetwork.members[154]  ""  ETV
vector 146  SimphonyDHTNetwork.members[160]  ""  ETV
vector 147  SimphonyDHTNetwork.members[143]  ""  ETV
vector 148  SimphonyDHTNetwork.members[155]  ""  ETV
vector 149  SimphonyDHTNetwork.members[113]  ""  ETV
vector 150  SimphonyDHTNetwork.members[159]  ""  ETV
vector 151  SimphonyDHTNetwork.members[134]  ""  ETV
vector 152  SimphonyDHTNetwork.members[128]  ""  ETV
vector 153  SimphonyDHTNetwork.members[136]  ""  ETV
vector 154  SimphonyDHTNetwork.members[151]  ""  ETV
vector 155  SimphonyDHTNetwork.members[148]  ""  ETV
vector 156  SimphonyDHTNetwork.members[153]  ""  ETV
vector 157  SimphonyDHTNetwork.members[166]  ""  ETV
vector 158  SimphonyDHTNetwork.members[165]  ""  ETV
vector 159  SimphonyDHTNetwork.members[164]  ""  ETV
vector 160  SimphonyDHTNetwork.members[169]  ""  ETV
vector 161  SimphonyDHTNetwork.members[161]  ""  ETV
vector 162  SimphonyDHTNetwork.members[162]  ""  ETV
vector 163  SimphonyDHTNetwork.members[152]  ""  ETV
vector 164  SimphonyDHTNetwork.members[167]  ""  ETV
vector 165  SimphonyDHTNetwork.members[157]  ""  ETV
vector 166  SimphonyDHTNetwork.members[173]  ""  ETV
vector 167  SimphonyDHTNetwork.members[175]  ""  ETV
vector 168  SimphonyDHTNetwork.members[142]  ""  ETV
vector 169  SimphonyDHTNetwork.members[150]  ""  ETV
vector 170  SimphonyDHTNetwork.members[176]  ""  ETV
vector 171  SimphonyDHTNetwork.members[163]  ""  ETV
vector 172  SimphonyDHTNetwork.members[172]  ""  ETV
vector 173  SimphonyDHTNetwork.members[187]  ""  ETV
vector 174  SimphonyDHTNetwork.members[184]  ""  ETV
vector 175  SimphonyDHTNetwork.members[170]  ""  ETV
vector 176  SimphonyDHTNetwork.members[180]  ""  ETV
vector 177  SimphonyDHTNetwork.members[168]  ""  ETV
vector 178  SimphonyDHTNetwork.members[185]  ""  ETV
vector 179  SimphonyDHTNetwork.members[182]  ""  ETV
vector 180  SimphonyDHTNetwork.members[179]  ""  ETV
vector 181  SimphonyDHTNetwork.members[189]  ""  ETV
vector 182  SimphonyDHTNetwork.members[181]  ""  ETV
vector 183  SimphonyDHTNetwork.members[178]  ""  ETV
vector 184  SimphonyDHTNetwork.members[188]  ""  ETV
vector 185  SimphonyDHTNetwork.members[174]  ""  ETV
vector 186  SimphonyDHTNetwork.members[186]  ""  ETV
vector 187  SimphonyDHTNetwork.members[190]  ""  ETV
vector 188  SimphonyDHTNetwork.members[192]  ""  ETV
vector 189  SimphonyDHTNetwork.members[200]  ""  ETV
vector 190  SimphonyDHTNetwork.members[197]  ""  ETV
vector 191  SimphonyDHTNetwork.members[171]  ""  ETV
vector 192  SimphonyDHTNetwork.members[198]  ""  ETV
vector 193  SimphonyDHTNetwork.members[194]  ""  ETV
vector 194  SimphonyDHTNetwork.members[193]  ""  ETV
vector 195  SimphonyDHTNetwork.members[191]  ""  ETV
vector 196  SimphonyDHTNetwork.members[183]  ""  ETV
vector 197  SimphonyDHTNetwork.members[208]  ""  ETV
vector 198  SimphonyDHTNetwork.members[202]  ""  ETV
vector 199  SimphonyDHTNetwork.members[199]  ""  ETV
vector 200  SimphonyDHTNetwork.members[201]  ""  ETV
vector 201  SimphonyDHTNetwork.members[204]  ""  ETV
vector 202  SimphonyDHTNetwork.members[207]  ""  ETV
vector 203  SimphonyDHTNetwork.members[206]  ""  ETV
vector 204  SimphonyDHTNetwork.members[211]  ""  ETV
vector 205  SimphonyDHTNetwork.members[213]  ""  ETV
vector 206  SimphonyDHTNetwork.members[214]  ""  ETV
vector 207  SimphonyDHTNetwork.members[217]  ""  ETV
vector 208  SimphonyDHTNetwork.members[209]  ""  ETV
vector 209  SimphonyDHTNetwork.members[216]  ""  ETV
vector 210  SimphonyDHTNetwork.members[210]  ""  ETV
vector 211  SimphonyDHTNetwork.members[205]  ""  ETV
vector 212  SimphonyDHTNetwork.members[195]  ""  ETV
vector 213  SimphonyDHTNetwork.members[215]  ""  ETV
vector 214  SimphonyDHTNetwork.members[196]  ""  ETV
vector 215  SimphonyDHTNetwork.members[223]  ""  ETV
vector 216  SimphonyDHTNetwork.members[224]  ""  ETV
vector 217  SimphonyDHTNetwork.members[229]  ""  ETV
vector 218  SimphonyDHTNetwork.members[227]  ""  ETV
vector 219  SimphonyDHTNetwork.members[219]  ""  ETV
vector 220  SimphonyDHTNetwork.members[230]  ""  ETV
vector 221  SimphonyDHTNetwork.members[222]  ""  ETV
vector 222  SimphonyDHTNetwork.members[177]  ""  ETV
vector 223  SimphonyDHTNetwork.members[220]  ""  ETV
vector 224  SimphonyDHTNetwork.members[228]  ""  ETV
vector 225  SimphonyDHTNetwork.members[232]  ""  ETV
vector 226  SimphonyDHTNetwork.members[221]  ""  ETV
vector 227  SimphonyDHTNetwork.members[203]  ""  ETV
vector 228  SimphonyDHTNetwork.members[226]  ""  ETV
vector 229  SimphonyDHTNetwork.members[237]  ""  ETV
vector 230  SimphonyDHTNetwork.members[231]  ""  ETV
vector 231  SimphonyDHTNetwork.members[236]  ""  ETV
vector 232  SimphonyDHTNetwork.members[225]  ""  ETV
vector 233  SimphonyDHTNetwork.members[242]  ""  ETV
vector 234  SimphonyDHTNetwork.members[233]  ""  ETV
vector 235  SimphonyDHTNetwork.members[235]  ""  ETV
vector 236  SimphonyDHTNetwork.members[243]  ""  ETV
vector 237  SimphonyDHTNetwork.members[246]  ""  ETV
vector 238  SimphonyDHTNetwork.members[247]  ""  ETV
vector 239  SimphonyDHTNetwork.members[244]  ""  ETV
vector 240  SimphonyDHTNetwork.members[248]  ""  ETV
vector 241  SimphonyDHTNetwork.members[240]  ""  ETV
vector 242  SimphonyDHTNetwork.members[250]  ""  ETV
vector 243  SimphonyDHTNetwork.members[234]  ""  ETV
vector 244  SimphonyDHTNetwork.members[218]  ""  ETV
vector 245  SimphonyDHTNetwork.members[249]  ""  ETV
vector 246  SimphonyDHTNetwork.members[252]  ""  ETV
vector 247  SimphonyDHTNetwork.members[253]  ""  ETV
vector 248  SimphonyDHTNetwork.members[241]  ""  ETV
vector 249  SimphonyDHTNetwork.members[255]  ""  ETV
vector 250  SimphonyDHTNetwork.members[212]  ""  ETV
vector 251  SimphonyDHTNetwork.members[258]  ""  ETV
vector 252  SimphonyDHTNetwork.members[238]  ""  ETV
vector 253  SimphonyDHTNetwork.members[257]  ""  ETV
vector 254  SimphonyDHTNetwork.members[260]  ""  ETV
vector 255  SimphonyDHTNetwork.members[259]  ""  ETV
vector 256  SimphonyDHTNetwork.members[245]  ""  ETV
vector 257  SimphonyDHTNetwork.members[262]  ""  ETV
vector 258  SimphonyDHTNetwork.members[266]  ""  ETV
vector 259  SimphonyDHTNetwork.members[268]  ""  ETV
vector 260  SimphonyDHTNetwork.members[239]  ""  ETV
vector 261  SimphonyDHTNetwork.members[271]  ""  ETV
vector 262  SimphonyDHTNetwork.members[265]  ""  ETV
vector 263  SimphonyDHTNetwork.members[270]  ""  ETV
vector 264  SimphonyDHTNetwork.members[261]  ""  ETV
vector 265  SimphonyDHTNetwork.members[267]  ""  ETV
vector 266  SimphonyDHTNetwork.members[254]  ""  ETV
vector 267  SimphonyDHTNetwork.members[277]  ""  ETV
vector 268  SimphonyDHTNetwork.members[269]  ""  ETV
vector 269  SimphonyDHTNetwork.members[275]  ""  ETV
vector 270  SimphonyDHTNetwork.members[279]  ""  ETV
vector 271  SimphonyDHTNetwork.members[276]  ""  ETV
vector 272  SimphonyDHTNetwork.members[256]  ""  ETV
vector 273  SimphonyDHTNetwork.members[283]  ""  ETV
vector 274  SimphonyDHTNetwork.members[264]  ""  ETV
vector 275  SimphonyDHTNetwork.members[278]  ""  ETV
vector 276  SimphonyDHTNetwork.members[263]  ""  ETV
vector 277  SimphonyDHTNetwork.members[274]  ""  ETV
vector 278  SimphonyDHTNetwork.members[280]  ""  ETV
vector 279  SimphonyDHTNetwork.members[282]  ""  ETV
vector 280  SimphonyDHTNetwork.members[287]  ""  ETV
vector 281  SimphonyDHTNetwork.members[284]  ""  ETV
vector 282  SimphonyDHTNetwork.members[290]  ""  ETV
vector 283  SimphonyDHTNetwork.members[293]  ""  ETV
vector 284  SimphonyDHTNetwork.members[286]  ""  ETV
vector 285  SimphonyDHTNetwork.members[272]  ""  ETV
vector 286  SimphonyDHTNetwork.members[296]  ""  ETV
vector 287  SimphonyDHTNetwork.members[251]  ""  ETV
vector 288  SimphonyDHTNetwork.members[291]  ""  ETV
vector 289  SimphonyDHTNetwork.members[281]  ""  ETV
vector 290  SimphonyDHTNetwork.members[289]  ""  ETV
vector 291  SimphonyDHTNetwork.members[273]  ""  ETV
vector 292  SimphonyDHTNetwork.members[288]  ""  ETV
vector 293  SimphonyDHTNetwork.members[306]  ""  ETV
vector 294  SimphonyDHTNetwork.members[292]  ""  ETV
vector 295  SimphonyDHTNetwork.members[304]  ""  ETV
vector 296  SimphonyDHTNetwork.members[307]  ""  ETV
vector 297  SimphonyDHTNetwork.members[297]  ""  ETV
vector 298  SimphonyDHTNetwork.members[294]  ""  ETV
vector 299  SimphonyDHTNetwork.members[303]  ""  ETV
vector 300  SimphonyDHTNetwork.members[312]  ""  ETV
vector 301  SimphonyDHTNetwork.members[311]  ""  ETV
vector 302  SimphonyDHTNetwork.members[300]  ""  ETV
vector 303  SimphonyDHTNetwork.members[313]  ""  ETV
vector 304  SimphonyDHTNetwork.members[309]  ""  ETV
vector 305  SimphonyDHTNetwork.members[317]  ""  ETV
vector 306  SimphonyDHTNetwork.members[305]  ""  ETV
vector 307  SimphonyDHTNetwork.members[308]  ""  ETV
vector 308  SimphonyDHTNetwork.members[301]  ""  ETV
vector 309  SimphonyDHTNetwork.members[295]  ""  ETV
vector 310  SimphonyDHTNetwork.members[319]  ""  ETV
vector 311  SimphonyDHTNetwork.members[320]  ""  ETV
vector 312  SimphonyDHTNetwork.members[322]  ""  ETV
vector 313  SimphonyDHTNetwork.members[321]  ""  ETV
vector 314  SimphonyDHTNetwork.members[302]  ""  ETV
vector 315  SimphonyDHTNetwork.members[285]  ""  ETV
vector 316  SimphonyDHTNetwork.members[324]  ""  ETV
vector 317  SimphonyDHTNetwork.members[326]  ""  ETV
vector 318  SimphonyDHTNetwork.members[316]  ""  ETV
vector 319  SimphonyDHTNetwork.members[327]  ""  ETV
vector 320  SimphonyDHTNetwork.members[330]  ""  ETV
vector 321  SimphonyDHTNetwork.members[323]  ""  ETV
vector 322  SimphonyDHTNetwork.members[328]  ""  ETV
vector 323  SimphonyDHTNetwork.members[334]  ""  ETV
vector 324  SimphonyDHTNetwork.members[325]  ""  ETV
vector 325  SimphonyDHTNetwork.members[315]  ""  ETV
vector 326  SimphonyDHTNetwork.members[335]  ""  ETV
vector 327  SimphonyDHTNetwork.members[331]  ""  ETV
vector 328  SimphonyDHTNetwork.members[329]  ""  ETV
vector 329  SimphonyDHTNetwork.members[314]  ""  ETV
vector 330  SimphonyDHTNetwork.members[299]  ""  ETV
vector 331  SimphonyDHTNetwork.members[340]  ""  ETV
vector 332  SimphonyDHTNetwork.members[337]  ""  ETV
vector 333  SimphonyDHTNetwork.members[298]  ""  ETV
vector 334  SimphonyDHTNetwork.members[310]  ""  ETV
vector 335  SimphonyDHTNetwork.members[341]  ""  ETV
vector 336  SimphonyDHTNetwork.members[336]  ""  ETV
vector 337  SimphonyDHTNetwork.members[343]  ""  ETV
vector 338  SimphonyDHTNetwork.members[338]  ""  ETV
vector 339  SimphonyDHTNetwork.members[332]  ""  ETV
vector 340  SimphonyDHTNetwork.members[345]  ""  ETV
vector 341  SimphonyDHTNetwork.members[348]  ""  ETV
vector 342  SimphonyDHTNetwork.members[342]  ""  ETV
vector 343  SimphonyDHTNetwork.members[339]  ""  ETV
vector 344  SimphonyDHTNetwork.members[344]  ""  ETV
vector 345  SimphonyDHTNetwork.members[318]  ""  ETV
vector 346  SimphonyDHTNetwork.members[349]  ""  ETV
vector 347  SimphonyDHTNetwork.members[352]  ""  ETV
vector 348  SimphonyDHTNetwork.members[347]  ""  ETV
vector 349  SimphonyDHTNetwork.members[351]  ""  ETV
vector 350  SimphonyDHTNetwork.members[358]  ""  ETV
vector 351  SimphonyDHTNetwork.members[355]  ""  ETV
vector 352  SimphonyDHTNetwork.members[350]  ""  ETV
vector 353  SimphonyDHTNetwork.members[346]  ""  ETV
vector 354  SimphonyDHTNetwork.members[361]  ""  ETV
vector 355  SimphonyDHTNetwork.members[365]  ""  ETV
vector 356  SimphonyDHTNetwork.members[357]  ""  ETV
vector 357  SimphonyDHTNetwork.members[354]  ""  ETV
vector 358  SimphonyDHTNetwork.members[362]  ""  ETV
vector 359  SimphonyDHTNetwork.members[356]  ""  ETV
vector 360  SimphonyDHTNetwork.members[333]  ""  ETV
vector 361  SimphonyDHTNetwork.members[368]  ""  ETV
vector 362  SimphonyDHTNetwork.members[369]  ""  ETV
vector 363  SimphonyDHTNetwork.members[353]  ""  ETV
vector 364  SimphonyDHTNetwork.members[371]  ""  ETV
vector 365  SimphonyDHTNetwork.members[364]  ""  ETV
vector 366  SimphonyDHTNetwork.members[370]  ""  ETV
vector 367  SimphonyDHTNetwork.members[372]  ""  ETV
vector 368  SimphonyDHTNetwork.members[360]  ""  ETV
vector 369  SimphonyDHTNetwork.members[374]  ""  ETV
vector 370  SimphonyDHTNetwork.members[363]  ""  ETV
vector 371  SimphonyDHTNetwork.members[366]  ""  ETV
vector 372  SimphonyDHTNetwork.members[375]  ""  ETV
vector 373  SimphonyDHTNetwork.members[380]  ""  ETV
vector 374  SimphonyDHTNetwork.members[367]  ""  ETV
vector 375  SimphonyDHTNetwork.members[379]  ""  ETV
vector 376  SimphonyDHTNetwork.members[382]  ""  ETV
vector 377  SimphonyDHTNetwork.members[384]  ""  ETV
vector 378  SimphonyDHTNetwork.members[373]  ""  ETV
vector 379  SimphonyDHTNetwork.members[359]  ""  ETV
vector 380  SimphonyDHTNetwork.members[386]  ""  ETV
vector 381  SimphonyDHTNetwork.members[381]  ""  ETV
vector 382  SimphonyDHTNetwork.members[390]  ""  ETV
vector 383  SimphonyDHTNetwork.members[394]  ""  ETV
vector 384  SimphonyDHTNetwork.members[391]  ""  ETV
vector 385  SimphonyDHTNetwork.members[395]  ""  ETV
vector 386  SimphonyDHTNetwork.members[377]  ""  ETV
vector 387  SimphonyDHTNetwork.members[392]  ""  ETV
vector 388  SimphonyDHTNetwork.members[396]  ""  ETV
vector 389  SimphonyDHTNetwork.members[385]  ""  ETV
vector 390  SimphonyDHTNetwork.members[397]  ""  ETV
vector 391  SimphonyDHTNetwork.members[388]  ""  ETV
vector 392  SimphonyDHTNetwork.members[401]  ""  ETV
vector 393  SimphonyDHTNetwork.members[393]  ""  ETV
vector 394  SimphonyDHTNetwork.members[403]  ""  ETV
vector 395  SimphonyDHTNetwork.members[399]  ""  ETV
vector 396  SimphonyDHTNetwork.members[376]  ""  ETV
vector 397  SimphonyDHTNetwork.members[405]  ""  ETV
vector 398  SimphonyDHTNetwork.members[387]  ""  ETV
vector 399  SimphonyDHTNetwork.members[408]  ""  ETV
vector 400  SimphonyDHTNetwork.members[404]  ""  ETV
vector 401  SimphonyDHTNetwork.members[383]  ""  ETV
vector 402  SimphonyDHTNetwork.members[411]  ""  ETV
vector 403  SimphonyDHTNetwork.members[412]  ""  ETV
vector 404  SimphonyDHTNetwork.members[407]  ""  ETV
vector 405  SimphonyDHTNetwork.members[378]  ""  ETV
vector 406  SimphonyDHTNetwork.members[410]  ""  ETV
vector 407  SimphonyDHTNetwork.members[413]  ""  ETV
vector 408  SimphonyDHTNetwork.members[406]  ""  ETV
vector 409  SimphonyDHTNetwork.members[409]  ""  ETV
vector 410  SimphonyDHTNetwork.members[419]  ""  ETV
vector 411  SimphonyDHTNetwork.members[416]  ""  ETV
vector 412  SimphonyDHTNetwork.members[418]  ""  ETV
vector 413  SimphonyDHTNetwork.members[423]  ""  ETV
vector 414  SimphonyDHTNetwork.members[402]  ""  ETV
vector 415  SimphonyDHTNetwork.members[400]  ""  ETV
vector 416  SimphonyDHTNetwork.members[422]  ""  ETV
vector 417  SimphonyDHTNetwork.members[421]  ""  ETV
vector 418  SimphonyDHTNetwork.members[426]  ""  ETV
vector 419  SimphonyDHTNetwork.members[428]  ""  ETV
vector 420  SimphonyDHTNetwork.members[414]  ""  ETV
vector 421  SimphonyDHTNetwork.members[425]  ""  ETV
vector 422  SimphonyDHTNetwork.members[417]  ""  ETV
vector 423  SimphonyDHTNetwork.members[415]  ""  ETV
vector 424  SimphonyDHTNetwork.members[424]  ""  ETV
vector 425  SimphonyDHTNetwork.members[389]  ""  ETV
vector 426  SimphonyDHTNetwork.members[420]  ""  ETV
vector 427  SimphonyDHTNetwork.members[427]  ""  ETV
vector 428  SimphonyDHTNetwork.members[433]  ""  ETV
vector 429  SimphonyDHTNetwork.members[432]  ""  ETV
vector 430  SimphonyDHTNetwork.members[434]  ""  ETV
vector 431  SimphonyDHTNetwork.members[430]  ""  ETV
vector 432  SimphonyDHTNetwork.members[431]  ""  ETV
vector 433  SimphonyDHTNetwork.members[436]  ""  ETV
vector 434  SimphonyDHTNetwork.members[441]  ""  ETV
vector 435  SimphonyDHTNetwork.members[440]  ""  ETV
vector 436  SimphonyDHTNetwork.members[438]  ""  ETV
vector 437  SimphonyDHTNetwork.members[435]  ""  ETV
vector 438  SimphonyDHTNetwork.members[439]  ""  ETV
vector 439  SimphonyDHTNetwork.members[429]  ""  ETV
vector 440  SimphonyDHTNetwork.members[398]  ""  ETV
vector 441  SimphonyDHTNetwork.members[445]  ""  ETV
vector 442  SimphonyDHTNetwork.members[447]  ""  ETV
vector 443  SimphonyDHTNetwork.members[443]  ""  ETV
vector 444  SimphonyDHTNetwork.members[450]  ""  ETV
vector 445  SimphonyDHTNetwork.members[448]  ""  ETV
vector 446  SimphonyDHTNetwork.members[451]  ""  ETV
vector 447  SimphonyDHTNetwork.members[452]  ""  ETV
vector 448  SimphonyDHTNetwork.members[444]  ""  ETV
vector 449  SimphonyDHTNetwork.members[449]  ""  ETV
vector 450  SimphonyDHTNetwork.members[457]  ""  ETV
vector 451  SimphonyDHTNetwork.members[459]  ""  ETV
vector 452  SimphonyDHTNetwork.members[462]  ""  ETV
vector 453  SimphonyDHTNetwork.members[460]  ""  ETV
vector 454  SimphonyDHTNetwork.members[456]  ""  ETV
vector 455  SimphonyDHTNetwork.members[454]  ""  ETV
vector 456  SimphonyDHTNetwork.members[458]  ""  ETV
vector 457  SimphonyDHTNetwork.members[465]  ""  ETV
vector 458  SimphonyDHTNetwork.members[437]  ""  ETV
vector 459  SimphonyDHTNetwork.members[466]  ""  ETV
vector 460  SimphonyDHTNetwork.members[468]  ""  ETV
vector 461  SimphonyDHTNetwork.members[455]  ""  ETV
vector 462  SimphonyDHTNetwork.members[464]  ""  ETV
vector 463  SimphonyDHTNetwork.members[471]  ""  ETV
vector 464  SimphonyDHTNetwork.members[476]  ""  ETV
vector 465  SimphonyDHTNetwork.members[472]  ""  ETV
vector 466  SimphonyDHTNetwork.members[470]  ""  ETV
vector 467  SimphonyDHTNetwork.members[463]  ""  ETV
vector 468  SimphonyDHTNetwork.members[477]  ""  ETV
vector 469  SimphonyDHTNetwork.members[479]  ""  ETV
vector 470  SimphonyDHTNetwork.members[469]  ""  ETV
vector 471  SimphonyDHTNetwork.members[467]  ""  ETV
vector 472  SimphonyDHTNetwork.members[478]  ""  ETV
vector 473  SimphonyDHTNetwork.members[442]  ""  ETV
vector 474  SimphonyDHTNetwork.members[473]  ""  ETV
vector 475  SimphonyDHTNetwork.members[446]  ""  ETV
vector 476  SimphonyDHTNetwork.members[483]  ""  ETV
vector 477  SimphonyDHTNetwork.members[480]  ""  ETV
vector 478  SimphonyDHTNetwork.members[453]  ""  ETV
vector 479  SimphonyDHTNetwork.members[487]  ""  ETV
vector 480  SimphonyDHTNetwork.members[481]  ""  ETV
vector 481  SimphonyDHTNetwork.members[490]  ""  ETV
vector 482  SimphonyDHTNetwork.members[482]  ""  ETV
vector 483  SimphonyDHTNetwork.members[489]  ""  ETV
vector 484  SimphonyDHTNetwork.members[488]  ""  ETV
vector 485  SimphonyDHTNetwork.members[475]  ""  ETV
vector 486  SimphonyDHTNetwork.members[474]  ""  ETV
vector 487  SimphonyDHTNetwork.members[494]  ""  ETV
vector 488  SimphonyDHTNetwork.members[501]  ""  ETV
vector 489  SimphonyDHTNetwork.members[484]  ""  ETV
vector 490  SimphonyDHTNetwork.members[500]  ""  ETV
vector 491  SimphonyDHTNetwork.members[485]  ""  ETV
vector 492  SimphonyDHTNetwork.members[498]  ""  ETV
vector 493  SimphonyDHTNetwork.members[491]  ""  ETV
vector 494  SimphonyDHTNetwork.members[503]  ""  ETV
vector 495  SimphonyDHTNetwork.members[499]  ""  ETV
vector 496  SimphonyDHTNetwork.members[492]  ""  ETV
vector 497  SimphonyDHTNetwork.members[502]  ""  ETV
vector 498  SimphonyDHTNetwork.members[497]  ""  ETV
vector 499  SimphonyDHTNetwork.members[507]  ""  ETV
vector 500  SimphonyDHTNetwork.members[495]  ""  ETV
vector 501  SimphonyDHTNetwork.members[505]  ""  ETV
vector 502  SimphonyDHTNetwork.members[496]  ""  ETV
vector 503  SimphonyDHTNetwork.members[461]  ""  ETV
vector 504  SimphonyDHTNetwork.members[486]  ""  ETV
vector 505  SimphonyDHTNetwork.members[509]  ""  ETV
vector 506  SimphonyDHTNetwork.members[511]  ""  ETV
vector 507  SimphonyDHTNetwork.members[504]  ""  ETV
vector 508  SimphonyDHTNetwork.members[493]  ""  ETV
vector 509  SimphonyDHTNetwork.members[510]  ""  ETV
vector 510  SimphonyDHTNetwork.members[508]  ""  ETV
vector 511  SimphonyDHTNetwork.members[506]  ""  ETV
0	27348 55781 2 420033 6819.511040396192 51643.431975359011 1755 0 1627 1434583 1560015869
1	83129 53864 3 425058 6819.611040396192 54227.237970720591 1704 1 1573 1340090 1403701886
2	136993 23978 6 424107 6819.811040396192 53644.551798750972 771 0 708 275789 131042391
3	160971 47506 7 414487 6819.811040396192 51178.822069218974 1508 0 1385 1048116 969472638
4	208477 41423 8 424935 6819.811040396192 54224.237970720591 1318 0 1207 802761 647450513
5	249900 68321 9 424702 6819.811040396192 54219.137970720591 2142 0 1996 2143883 2854419129
6	318221 27645 10 420688 6819.811040396192 51650.331975359011 890 0 806 359131 193156379
7	345866 23193 11 407046 6819.811040396192 50883.232438024782 746 0 670 252590 113245144
8	369059 40772 12 415508 6819.811040396192 51228.836802608584 1294 0 1203 775147 621404813
9	409831 17546 29 419179 6820.411040396192 51638.031975359011 564 3 508 142698 48247130
10	427377 67690 32 424802 6820.511040396192 54221.537970720591 2063 0 1915 1980371 2527755285
11	495067 43108 54 421525 6821.411040396192 52460.871880744506 1333 0 1224 821509 673367139
12	538175 41890 57 424004 6821.411040396192 53641.851798750972 1299 0 1180 776488 615022428
13	580065 59631 64 421652 6821.711040396192 52462.671880744506 1831 0 1686 1555532 1755498458
14	639696 54322 69 424799 6822.011040396192 54221.537970720591 1663 0 1551 1302618 1352558562
15	694018 36317 70 424724 6822.011040396192 54219.137970720591 1130 0 1055 602956 426221072
16	730335 45805 72 407530 6822.011040396192 50895.532438024782 1413 0 1292 925802 803369426
17	776140 35466 84 405411 6822.311040396192 50821.309927023999 1105 0 1009 562085 380874075
18	811606 47298 89 423733 6822.611040396192 53638.551798750972 1461 0 1346 996296 899854726
19	858904 46196 92 416112 6822.611040396192 51235.436802608584 1417 0 1304 921549 799639199
20	905100 44127 104 422567 6822.911040396192 52472.871880744506 1364 0 1260 863155 726369699
21	949227 43421 109 423730 6823.211040396192 53638.551798750972 1341 0 1261 852875 719888623
22	992648 42350 112 422746 6823.211040396192 53627.751798750972 1310 0 1182 780502 615991654
23	1034998 39457 124 423182 6823.511040396192 53632.851798750972 1224 0 1123 686211 511220151
24	1074455 80712 181 415093 6826.011040396192 51224.086895927185 2468 0 2304 2847791 4377986837
25	1155167 64686 182 424933 6826.011040396192 54224.237970720591 1977 0 1830 1800120 2190180446
26	1219853 47090 183 424143 6826.011040396192 53645.151798750972 1455 0 1349 985990 888991206
27	1266943 64916 201 424437 6826.611040396192 54212.237970720591 1998 0 1851 1864141 2307857621