version 2
run allAtOnce-2-20130122-16:51:39-9581
attr configname allAtOnce
attr datetime 20130122-16:51:39
attr experiment allAtOnce
attr inifile omnetpp.ini
attr iterationvars "$0=128, $1=100"
attr iterationvars2 "$0=128, $1=100, $repetition=2"
attr measurement "$0=128, $1=100"
attr network SimphonyDHTNetwork
attr processid 9581
attr repetition 2
attr replication #2
attr resultdir results
attr runnumber 2
attr seedset 2

vector 0  SimphonyDHTNetwork.members[59]  ""  ETV
vector 1  SimphonyDHTNetwork.members[60]  ""  ETV
vector 2  SimphonyDHTNetwork.members[61]  ""  ETV
vector 3  SimphonyDHTNetwork.members[50]  ""  ETV
vector 4  SimphonyDHTNetwork.members[51]  ""  ETV
vector 5  SimphonyDHTNetwork.members[52]  ""  ETV
vector 6  SimphonyDHTNetwork.members[49]  ""  ETV
vector 7  SimphonyDHTNetwork.members[40]  ""  ETV
vector 8  SimphonyDHTNetwork.members[41]  ""  ETV
vector 9  SimphonyDHTNetwork.members[42]  ""  ETV
vector 10  SimphonyDHTNetwork.members[58]  ""  ETV
vector 11  SimphonyDHTNetwork.members[39]  ""  ETV
vector 12  SimphonyDHTNetwork.members[30]  ""  ETV
vector 13  SimphonyDHTNetwork.members[31]  ""  ETV
vector 14  SimphonyDHTNetwork.members[32]  ""  ETV
vector 15  SimphonyDHTNetwork.members[48]  ""  ETV
vector 16  SimphonyDHTNetwork.members[29]  ""  ETV
vector 17  SimphonyDHTNetwork.members[20]  ""  ETV
vector 18  SimphonyDHTNetwork.members[21]  ""  ETV
vector 19  SimphonyDHTNetwork.members[22]  ""  ETV
vector 20  SimphonyDHTNetwork.members[38]  ""  ETV
vector 21  SimphonyDHTNetwork.members[19]  ""  ETV
vector 22  SimphonyDHTNetwork.members[10]  ""  ETV
vector 23  SimphonyDHTNetwork.members[11]  ""  ETV
vector 24  SimphonyDHTNetwork.members[12]  ""  ETV
vector 25  SimphonyDHTNetwork.members[28]  ""  ETV
vector 26  SimphonyDHTNetwork.members[18]  ""  ETV
vector 27  SimphonyDHTNetwork.members[110]  ""  ETV
vector 28  SimphonyDHTNetwork.members[17]  ""  ETV
vector 29  SimphonyDHTNetwork.members[8]  ""  ETV
vector 30  SimphonyDHTNetwork.members[9]  ""  ETV
vector 31  SimphonyDHTNetwork.members[26]  ""  ETV
vector 32  SimphonyDHTNetwork.members[27]  ""  ETV
vector 33  SimphonyDHTNetwork.members[7]  ""  ETV
vector 34  SimphonyDHTNetwork.members[0]  ""  ETV
vector 35  SimphonyDHTNetwork.members[16]  ""  ETV
vector 36  SimphonyDHTNetwork.members[6]  ""  ETV
vector 37  SimphonyDHTNetwork.members[15]  ""  ETV
vector 38  SimphonyDHTNetwork.members[5]  ""  ETV
vector 39  SimphonyDHTNetwork.members[14]  ""  ETV
vector 40  SimphonyDHTNetwork.members[4]  ""  ETV
vector 41  SimphonyDHTNetwork.members[13]  ""  ETV
vector 42  SimphonyDHTNetwork.members[3]  ""  ETV
vector 43  SimphonyDHTNetwork.members[2]  ""  ETV
vector 44  SimphonyDHTNetwork.members[1]  ""  ETV
vector 45  SimphonyDHTNetwork.members[25]  ""  ETV
vector 46  SimphonyDHTNetwork.members[24]  ""  ETV
vector 47  SimphonyDHTNetwork.members[23]  ""  ETV
vector 48  SimphonyDHTNetwork.members[114]  ""  ETV
vector 49  SimphonyDHTNetwork.members[53]  ""  ETV
vector 50  SimphonyDHTNetwork.members[54]  ""  ETV
vector 51  SimphonyDHTNetwork.members[43]  ""  ETV
vector 52  SimphonyDHTNetwork.members[44]  ""  ETV
vector 53  SimphonyDHTNetwork.members[45]  ""  ETV
vector 54  SimphonyDHTNetwork.members[62]  ""  ETV
vector 55  SimphonyDHTNetwork.members[63]  ""  ETV
vector 56  SimphonyDHTNetwork.members[33]  ""  ETV
vector 57  SimphonyDHTNetwork.members[34]  ""  ETV
vector 58  SimphonyDHTNetwork.members[35]  ""  ETV
vector 59  SimphonyDHTNetwork.members[55]  ""  ETV
vector 60  SimphonyDHTNetwork.members[102]  ""  ETV
vector 61  SimphonyDHTNetwork.members[75]  ""  ETV
vector 62  SimphonyDHTNetwork.members[36]  ""  ETV
vector 63  SimphonyDHTNetwork.members[37]  ""  ETV
vector 64  SimphonyDHTNetwork.members[77]  ""  ETV
vector 65  SimphonyDHTNetwork.members[76]  ""  ETV
vector 66  SimphonyDHTNetwork.members[83]  ""  ETV
vector 67  SimphonyDHTNetwork.members[126]  ""  ETV
vector 68  SimphonyDHTNetwork.members[46]  ""  ETV
vector 69  SimphonyDHTNetwork.members[47]  ""  ETV
vector 70  SimphonyDHTNetwork.members[89]  ""  ETV
vector 71  SimphonyDHTNetwork.members[109]  ""  ETV
vector 72  SimphonyDHTNetwork.members[97]  ""  ETV
vector 73  SimphonyDHTNetwork.members[57]  ""  ETV
vector 74  SimphonyDHTNetwork.members[112]  ""  ETV
vector 75  SimphonyDHTNetwork.members[87]  ""  ETV
vector 76  SimphonyDHTNetwork.members[70]  ""  ETV
vector 77  SimphonyDHTNetwork.members[86]  ""  ETV
vector 78  SimphonyDHTNetwork.members[56]  ""  ETV
vector 79  SimphonyDHTNetwork.members[93]  ""  ETV
vector 80  SimphonyDHTNetwork.members[66]  ""  ETV
vector 81  SimphonyDHTNetwork.members[104]  ""  ETV
vector 82  SimphonyDHTNetwork.members[68]  ""  ETV
vector 83  SimphonyDHTNetwork.members[90]  ""  ETV
vector 84  SimphonyDHTNetwork.members[92]  ""  ETV
vector 85  SimphonyDHTNetwork.members[108]  ""  ETV
vector 86  SimphonyDHTNetwork.members[82]  ""  ETV
vector 87  SimphonyDHTNetwork.members[81]  ""  ETV
vector 88  SimphonyDHTNetwork.members[95]  ""  ETV
vector 89  SimphonyDHTNetwork.members[113]  ""  ETV
vector 90  SimphonyDHTNetwork.members[74]  ""  ETV
vector 91  SimphonyDHTNetwork.members[64]  ""  ETV
vector 92  SimphonyDHTNetwork.members[71]  ""  ETV
vector 93  SimphonyDHTNetwork.members[65]  ""  ETV
vector 94  SimphonyDHTNetwork.members[96]  ""  ETV
vector 95  SimphonyDHTNetwork.members[88]  ""  ETV
vector 96  SimphonyDHTNetwork.members[69]  ""  ETV
vector 97  SimphonyDHTNetwork.members[107]  ""  ETV
vector 98  SimphonyDHTNetwork.members[100]  ""  ETV
vector 99  SimphonyDHTNetwork.members[125]  ""  ETV
vector 100  SimphonyDHTNetwork.members[119]  ""  ETV
vector 101  SimphonyDHTNetwork.members[78]  ""  ETV
vector 102  SimphonyDHTNetwork.members[67]  ""  ETV
vector 103  SimphonyDHTNetwork.members[122]  ""  ETV
vector 104  SimphonyDHTNetwork.members[72]  ""  ETV
vector 105  SimphonyDHTNetwork.members[94]  ""  ETV
vector 106  SimphonyDHTNetwork.members[121]  ""  ETV
vector 107  SimphonyDHTNetwork.members[123]  ""  ETV
vector 108  SimphonyDHTNetwork.members[91]  ""  ETV
vector 109  SimphonyDHTNetwork.members[79]  ""  ETV
vector 110  SimphonyDHTNetwork.members[111]  ""  ETV
vector 111  SimphonyDHTNetwork.members[99]  ""  ETV
vector 112  SimphonyDHTNetwork.members[101]  ""  ETV
vector 113  SimphonyDHTNetwork.members[124]  ""  ETV
vector 114  SimphonyDHTNetwork.members[105]  ""  ETV
vector 115  SimphonyDHTNetwork.members[84]  ""  ETV
vector 116  SimphonyDHTNetwork.members[120]  ""  ETV
vector 117  SimphonyDHTNetwork.members[106]  ""  ETV
vector 118  SimphonyDHTNetwork.members[115]  ""  ETV
vector 119  SimphonyDHTNetwork.members[80]  ""  ETV
vector 120  SimphonyDHTNetwork.members[98]  ""  ETV
vector 121  SimphonyDHTNetwork.members[103]  ""  ETV
vector 122  SimphonyDHTNetwork.members[117]  ""  ETV
vector 123  SimphonyDHTNetwork.members[73]  ""  ETV
vector 124  SimphonyDHTNetwork.members[127]  ""  ETV
vector 125  SimphonyDHTNetwork.members[118]  ""  ETV
vector 126  SimphonyDHTNetwork.members[85]  ""  ETV
vector 127  SimphonyDHTNetwork.members[116]  ""  ETV
0	2	306.229120941724	0
0	5	306.529120941724	1
0	25	307.129120941724	2
0	868	882.711320692021	3
0	4666	3146.750550755292	4
0	4669	3147.050550755292	5
0	4679	3147.250550755292	6
0	4681	3147.450550755292	7
0	4682	3147.550550755292	7
0	4695	3148.250550755292	8
0	4726	3149.550550755292	9
0	4730	3149.550550755292	10
0	4732	3149.750550755292	11
0	4733	3149.850550755292	11
0	4735	3149.850550755292	17
0	4741	3150.050550755292	17
0	4742	3150.050550755292	17
0	4743	3150.050550755292	17
0	4744	3150.050550755292	17
0	4745	3150.050550755292	17
0	4757	3150.550550755292	18
0	4834	3153.350550755292	19
0	4928	3211.357622491366	20
0	4932	3211.357622491366	21
0	4934	3211.557622491366	22
0	4935	3211.657622491366	22
0	4937	3211.657622491366	28
0	4943	3211.857622491366	28
0	4944	3211.857622491366	28
0	4945	3211.857622491366	28
0	4946	3211.857622491366	28
0	4947	3211.857622491366	28
0	4959	3212.357622491366	29
0	4994	3213.757622491366	30
0	5052	3215.557622491366	31
0	6017	3640.181332881372	32
0	6020	3640.481332881372	33
0	6030	3640.681332881372	34
0	6032	3640.881332881372	35
0	6033	3640.981332881372	35
0	6035	3640.981332881372	41
0	6041	3641.181332881372	41
0	6042	3641.181332881372	41
0	6043	3641.181332881372	41
0	6044	3641.181332881372	41
0	6045	3641.181332881372	41
0	6051	3641.681332881372	42
0	6080	3643.081332881372	43
0	6372	3652.881332881372	44
0	6819	4109.961804029654	45
0	7143	4115.461804029654	46
0	7189	4116.061804029654	47
0	7193	4116.061804029654	48
0	7197	4116.261804029654	49
0	7199	4116.361804029654	49
0	7201	4116.361804029654	55
0	7212	4116.561804029654	55
0	7213	4116.561804029654	55
0	7214	4116.561804029654	55
0	7215	4116.561804029654	55
0	7216	4116.561804029654	55
0	7235	4117.061804029654	56
0	7351	4118.961804029654	57
0	7388	4421.978147202302	58
0	7409	4422.578147202302	59
0	7430	4423.178147202302	60
0	7706	4792.58853201236	61
0	7710	4792.58853201236	62
0	7712	4792.78853201236	63
0	7713	4792.88853201236	63
0	7715	4792.88853201236	69
0	7721	4793.08853201236	69
0	7722	4793.08853201236	69
0	7723	4793.08853201236	69
0	7724	4793.08853201236	69
0	7725	4793.08853201236	69
0	7737	4793.58853201236	70
0	7888	4798.58853201236	71
0	8232	4804.68853201236	72
0	8645	4860.263343179578	73
0	8760	4864.363343179578	74
0	8778	4864.963343179578	75
0	8798	4865.563343179578	76
0	8905	4869.263343179578	77
0	9170	5080.187786490912	78
0	9752	5346.449603249258	79
0	9888	5351.049603249258	80
0	10305	5690.19630866721	81
0	10446	5695.09630866721	82
0	10450	5695.09630866721	83
0	10452	5695.29630866721	84
0	10453	5695.39630866721	84
0	10455	5695.39630866721	90
0	10461	5695.59630866721	90
0	10462	5695.59630866721	90
0	10463	5695.59630866721	90
0	10464	5695.59630866721	90
0	10465	5695.59630866721	90
0	10471	5696.09630866721	91
0	10485	5696.79630866721	92
0	10759	5759.160441797324	93
0	11435	5857.538659470902	94
0	12029	6440.952627676442	95
0	12033	6440.952627676442	96
0	12035	6441.152627676442	97
0	12036	6441.252627676442	97
0	12038	6441.252627676442	103
0	12044	6441.452627676442	103
0	12045	6441.452627676442	103
0	12046	6441.452627676442	103
0	12047	6441.452627676442	103
0	12048	6441.452627676442	103
0	12060	6441.952627676442	104
0	12095	6443.352627676442	105
0	12663	6510.428952389825	106
0	12698	6510.928952389825	107
0	12702	6510.928952389825	108
0	12707	6511.128952389825	109
0	12708	6511.228952389825	109
0	12710	6511.228952389825	115
0	12729	6511.428952389825	115
0	12730	6511.428952389825	115
0	12731	6511.428952389825	115
0	12732	6511.428952389825	115
0	12733	6511.428952389825	115
0	12760	6511.928952389825	116
0	12791	6512.628952389825	117
0	12813	6513.128952389825	118
0	12819	6513.128952389825	119
0	12822	6513.328952389825	120
0	12824	6513.428952389825	120
0	12830	6513.428952389825	126
0	12839	6513.628952389825	126
0	12840	6513.628952389825	126
0	12841	6513.628952389825	126
0	12842	6513.628952389825	126
0	12843	6513.628952389825	126
0	12848	6513.728952389825	127
0	12874	6514.128952389825	128
0	12986	6515.928952389825	129
0	13055	6517.828952389825	130
0	13071	6518.428952389825	131
0	13075	6518.428952389825	132
0	13077	6518.628952389825	133
0	13078	6518.728952389825	133
0	13080	6518.728952389825	139
0	13086	6518.928952389825	139
0	13087	6518.928952389825	139
0	13088	6518.928952389825	139
0	13089	6518.928952389825	139
0	13090	6518.928952389825	139
0	13102	6519.428952389825	140
0	13179	6522.228952389825	141
0	13310	6651.78093150851	142
0	13317	6651.78093150851	143
0	13321	6651.98093150851	144
0	13323	6652.08093150851	144
0	13326	6652.08093150851	150
0	13331	6652.08093150851	151
0	13332	6652.08093150851	151
0	13339	6652.28093150851	152
0	13340	6652.28093150851	152
0	13341	6652.28093150851	152
0	13342	6652.28093150851	152
0	13343	6652.28093150851	152
0	13344	6652.28093150851	153
0	13345	6652.38093150851	153
0	13348	6652.38093150851	159
0	13355	6652.58093150851	159
0	13356	6652.58093150851	159
0	13357	6652.58093150851	159
0	13358	6652.58093150851	159
0	13359	6652.58093150851	159
0	13370	6652.78093150851	160
0	13384	6653.08093150851	161
0	13527	6655.58093150851	162
0	13576	6656.48093150851	163
0	13590	6656.78093150851	164
0	13671	6657.98093150851	165
0	13675	6657.98093150851	166
0	13678	6658.18093150851	167
0	13684	6658.28093150851	167
0	13687	6658.28093150851	173
0	13695	6658.48093150851	173
0	13696	6658.48093150851	173
0	13697	6658.48093150851	173
0	13698	6658.48093150851	173
0	13699	6658.48093150851	173
0	13728	6658.98093150851	174
0	13752	6659.48093150851	175
0	13756	6659.48093150851	176
0	13774	6659.68093150851	177
0	13775	6659.78093150851	177
0	13778	6659.78093150851	183
0	13785	6659.98093150851	183
0	13786	6659.98093150851	183
0	13787	6659.98093150851	183
0	13788	6659.98093150851	183
0	13789	6659.98093150851	183
0	13822	6660.48093150851	184
0	13907	6661.88093150851	185
0	13942	6663.18093150851	186
0	13976	6664.38093150851	187
0	13980	6664.38093150851	188
0	13982	6664.58093150851	189
0	13983	6664.68093150851	189
0	13985	6664.68093150851	195
0	13991	6664.88093150851	195
0	13992	6664.88093150851	195
0	13993	6664.88093150851	195
0	13994	6664.88093150851	195
0	13995	6664.88093150851	195
0	14007	6665.38093150851	196
0	14300	6674.18093150851	197
0	14375	6838.232681335552	198
0	14918	7020.168342011468	199
0	15689	7453.674820090575	200
0	15715	7453.974820090575	201
0	15731	7454.174820090575	202
0	15757	7454.374820090575	203
0	15761	7454.474820090575	203
0	15771	7454.474820090575	209
0	15780	7454.674820090575	209
0	15781	7454.674820090575	209
0	15782	7454.674820090575	209
0	15783	7454.674820090575	209
0	15784	7454.674820090575	209
0	15829	7455.174820090575	210
0	15886	7455.874820090575	211
0	16216	7615.39014464734	212
0	17086	7832.047405161776	213
0	17544	7948.262455512827	214
0	17562	7948.862455512827	215
0	17582	7949.462455512827	216
0	17951	8271.355757874578	217
0	17954	8271.655757874578	218
0	17964	8271.855757874578	219
0	17966	8272.055757874578	220
0	17967	8272.155757874578	220
0	17969	8272.155757874578	226
0	17975	8272.355757874578	226
0	17976	8272.355757874578	226
0	17977	8272.355757874578	226
0	17978	8272.355757874578	226
0	17979	8272.355757874578	226
0	17985	8272.855757874578	227
0	18044	8274.855757874578	228
0	18728	9531.321750417398	229
0	18731	9531.621750417398	230
0	18750	9532.221750417398	231
0	18936	9538.821750417398	232
0	19177	9546.721750417398	233
0	19418	9554.621750417398	234
0	19621	10713.596821510516	235
0	19983	10724.396821510516	236
0	20165	11326.57969821305	238
0	20166	11326.67969821305	238
0	20168	11326.67969821305	244
0	20174	11326.87969821305	244
0	20175	11326.87969821305	244
0	20176	11326.87969821305	244
0	20177	11326.87969821305	244
0	20178	11326.87969821305	244
0	20190	11327.37969821305	245
0	20293	11330.57969821305	246
0	22225	15242.979954458436	246
0	23090	15306.94945918264	247
0	23738	15384.891830207104	248
0	24300	16009.2009824318	249
0	24318	16009.8009824318	250
0	24338	16010.4009824318	251
0	25197	17171.281203680064	252
0	25259	17173.381203680064	253
0	25509	17180.781203680064	254
0	25758	17188.681203680064	255
0	26085	18105.0872917845	256
0	26104	18105.6872917845	257
0	26162	18107.3872917845	258
0	26313	18112.8872917845	259
0	26584	18121.2872917845	260
0	27131	18727.031091496064	261
0	27165	18727.531091496064	262
0	27348	18730.231091496064	263
0	27535	18733.431091496064	264
0	27602	18734.631091496064	265
0	28056	20360.225633383448	267
0	28057	20360.325633383448	267
0	28059	20360.325633383448	273
0	28065	20360.525633383448	273
0	28066	20360.525633383448	273
0	28067	20360.525633383448	273
0	28068	20360.525633383448	273
0	28069	20360.525633383448	273
0	28082	20361.025633383448	274
0	28114	20362.425633383448	275
0	28276	20365.125633383448	275
0	28524	20368.725633383448	276
0	29236	25433.176521575356	277
0	29439	25436.176521575356	278
0	30416	30435.804080776212	279
0	30768	30446.604080776212	280
0	30918	30769.620643074712	281
0	30921	30769.920643074712	282
0	30931	30770.120643074712	283
0	30933	30770.320643074712	284
0	30934	30770.420643074712	284
0	30936	30770.420643074712	290
0	30942	30770.620643074712	290
0	30943	30770.620643074712	290
0	30944	30770.620643074712	290
0	30945	30770.620643074712	290
0	30946	30770.620643074712	290
0	30952	30771.120643074712	291
0	31029	30773.720643074712	292
0	31722	33442.494496866568	293
0	31742	33442.794496866568	294
0	32300	33452.594496866568	295
0	32461	34741.025539258316	296
0	32480	34741.625539258316	297
0	32522	34742.725539258316	298
0	33680	41965.68602290236	299
0	33896	43005.812055742096	300
0	33915	43006.412055742096	301
0	34059	43012.012055742096	302
0	34075	43012.612055742096	303
0	34080	43012.912055742096	304
0	34098	43013.512055742096	305
0	34348	43020.612055742096	306
0	34384	43022.112055742096	307
0	34389	43022.412055742096	308
0	34407	43023.012055742096	309
0	34449	43024.112055742096	310
0	34598	43029.112055742096	311
0	34603	43029.412055742096	312
0	34621	43030.012055742096	313
0	34821	59572.172814310576	314
0	34826	59572.472814310576	315
0	34844	59573.072814310576	316
1	3	306.329120941724	1
1	4	306.429120941724	1
1	10	306.629120941724	6
1	11	306.629120941724	6
1	12	306.629120941724	6
1	13	306.629120941724	6
1	14	306.629120941724	6
1	26	307.129120941724	7
1	103	309.929120941724	8
1	869	882.711320692021	8
1	4652	3146.150550755292	9
1	4655	3146.450550755292	10
1	4665	3146.650550755292	11
1	4667	3146.850550755292	12
1	4668	3146.950550755292	12
1	4674	3147.150550755292	17
1	4675	3147.150550755292	17
1	4676	3147.150550755292	17
1	4677	3147.150550755292	17
1	4678	3147.150550755292	17
1	4683	3147.650550755292	18
1	4737	3149.950550755292	19
1	4939	3211.757622491366	20
1	5339	3333.583163906728	21
1	5554	3474.428181702876	22
1	6003	3639.581332881372	23
1	6006	3639.881332881372	24
1	6016	3640.081332881372	25
1	6018	3640.281332881372	26
1	6019	3640.381332881372	26
1	6025	3640.581332881372	31
1	6026	3640.581332881372	31
1	6027	3640.581332881372	31
1	6028	3640.581332881372	31
1	6029	3640.581332881372	31
1	6037	3641.081332881372	32
1	6081	3643.181332881372	33
1	7204	4116.461804029654	34
1	7366	4421.078147202302	35
1	7369	4421.378147202302	36
1	7389	4421.978147202302	37
1	7410	4422.578147202302	38
1	7717	4792.98853201236	39
1	8646	4860.263343179578	40
1	8761	4864.363343179578	41
1	8779	4864.963343179578	42
1	8906	4869.263343179578	43
1	10457	5695.49630866721	44
1	12040	6441.352627676442	45
1	12713	6511.328952389825	46
1	12835	6513.528952389825	47
1	13082	6518.828952389825	48
1	13334	6652.18093150851	49
1	13350	6652.48093150851	50
1	13689	6658.38093150851	51
1	13780	6659.88093150851	52
1	13987	6664.78093150851	53
1	15633	7453.074820090575	54
1	15664	7453.374820090575	55
1	15686	7453.574820090575	56
1	15698	7453.774820090575	57
1	15705	7453.874820090575	57
1	15722	7454.074820090575	62
1	15723	7454.074820090575	62
1	15724	7454.074820090575	62
1	15725	7454.074820090575	62
1	15726	7454.074820090575	62
1	15773	7454.574820090575	63
1	15889	7455.974820090575	64
1	17518	7947.462455512827	65
1	17545	7948.262455512827	66
1	17563	7948.862455512827	67
1	17937	8270.755757874578	68
1	17940	8271.055757874578	69
1	17950	8271.255757874578	70
1	17952	8271.455757874578	71
1	17953	8271.555757874578	71
1	17959	8271.755757874578	76
1	17960	8271.755757874578	76
1	17961	8271.755757874578	76
1	17962	8271.755757874578	76
1	17963	8271.755757874578	76
1	17971	8272.255757874578	77
1	18045	8274.955757874578	78
1	18729	9531.421750417398	80
1	18730	9531.521750417398	80
1	18736	9531.721750417398	85
1	18737	9531.721750417398	85
1	18738	9531.721750417398	85
1	18739	9531.721750417398	85
1	18740	9531.721750417398	85
1	18751	9532.221750417398	86
1	18891	9537.221750417398	87
1	18898	9537.321750417398	87
1	18914	9537.921750417398	88
1	18919	9538.221750417398	89
1	18937	9538.821750417398	90
1	19155	9545.821750417398	91
1	19160	9546.121750417398	92
1	19178	9546.721750417398	93
1	19396	9553.721750417398	94
1	19401	9554.021750417398	95
1	19419	9554.621750417398	96
1	20170	11326.77969821305	97
1	20751	14237.18287233629	98
1	21294	14772.794964296468	99
1	23805	15385.991830207104	100
1	24272	16008.4009824318	101
1	24301	16009.2009824318	102
1	24319	16009.8009824318	103
1	25169	17170.481203680064	104
1	25198	17171.281203680064	105
1	26057	18104.2872917845	106
1	26086	18105.0872917845	107
1	26105	18105.6872917845	108
1	27084	18726.131091496064	109
1	27097	18726.431091496064	110
1	27112	18726.631091496064	111
1	27120	18726.931091496064	112
1	27132	18727.031091496064	113
1	27166	18727.531091496064	114
1	27294	18729.331091496064	115
1	27309	18729.631091496064	116
1	27349	18730.231091496064	117
1	27478	18732.531091496064	118
1	27495	18732.831091496064	119
1	27536	18733.431091496064	120
1	27553	18733.731091496064	121
1	27566	18734.031091496064	122
1	27603	18734.631091496064	123
1	27670	18735.931091496064	124
1	28061	20360.425633383448	125
1	29506	25437.176521575356	126
1	30902	30769.020643074712	127
1	30909	30769.320643074712	128
1	30917	30769.520643074712	129
1	30919	30769.720643074712	130
1	30920	30769.820643074712	130
1	30926	30770.020643074712	135
1	30927	30770.020643074712	135
1	30928	30770.020643074712	135
1	30929	30770.020643074712	135
1	30930	30770.020643074712	135
1	30938	30770.520643074712	136
1	31030	30773.820643074712	137
1	32435	34740.225539258316	138
1	32462	34741.025539258316	139
1	32481	34741.625539258316	140
1	33439	41312.79991641728	141
1	33652	41964.78602290236	142
1	33661	41965.08602290236	143
1	33681	41965.68602290236	144
1	34040	43011.012055742096	145
1	34053	43011.912055742096	146
1	34055	43011.912055742096	147
1	34060	43012.112055742096	148
1	34061	43012.212055742096	148
1	34065	43012.212055742096	149
1	34067	43012.212055742096	149
1	34070	43012.512055742096	150
1	34074	43012.512055742096	151
1	34076	43012.712055742096	152
1	34077	43012.812055742096	152
1	34079	43012.812055742096	157
1	34084	43013.012055742096	157
1	34085	43013.012055742096	157
1	34086	43013.012055742096	157
1	34087	43013.012055742096	157
1	34099	43013.512055742096	158
1	34374	43021.712055742096	159
1	34376	43021.712055742096	160
1	34379	43022.012055742096	161
1	34383	43022.012055742096	162
1	34385	43022.212055742096	163
1	34386	43022.312055742096	163
1	34388	43022.312055742096	168
1	34393	43022.512055742096	168
1	34394	43022.512055742096	168
1	34395	43022.512055742096	168
1	34396	43022.512055742096	168
1	34408	43023.012055742096	169
1	34588	43028.712055742096	170
1	34590	43028.712055742096	171
1	34593	43029.012055742096	172
1	34597	43029.012055742096	173
1	34599	43029.212055742096	174
1	34600	43029.312055742096	174
1	34602	43029.312055742096	179
1	34607	43029.512055742096	179
1	34608	43029.512055742096	179
1	34609	43029.512055742096	179
1	34610	43029.512055742096	179
1	34622	43030.012055742096	180
1	34818	43036.512055742096	181
1	34822	59572.272814310576	183
1	34823	59572.372814310576	183
1	34825	59572.372814310576	188
1	34830	59572.572814310576	188
1	34831	59572.572814310576	188
1	34832	59572.572814310576	188
1	34833	59572.572814310576	188
1	34845	59573.072814310576	189
1	34973	59577.972814310576	190
2	6	306.529120941724	0
2	404	799.70549557208	1
2	596	806.50549557208	2
2	870	882.711320692021	3
2	1191	894.811320692021	4
2	1459	972.68546412752	5
2	2503	2062.32588782782	6
2	4124	2753.26050438709	7
2	4235	2757.36050438709	8
2	4384	2762.86050438709	9
2	4638	3145.550550755292	10
2	4641	3145.850550755292	11
2	4651	3146.050550755292	12
2	4653	3146.250550755292	13
2	4654	3146.350550755292	13
2	4660	3146.550550755292	18
2	4661	3146.550550755292	18
2	4662	3146.550550755292	18
2	4663	3146.550550755292	18
2	4664	3146.550550755292	18
2	4670	3147.050550755292	19
2	4684	3147.750550755292	20
2	5126	3218.057622491366	21
2	5340	3333.583163906728	22
2	5532	3473.528181702876	23
2	5535	3473.828181702876	24
2	5555	3474.428181702876	25
2	5989	3638.981332881372	26
2	5992	3639.281332881372	27
2	6002	3639.481332881372	28
2	6004	3639.681332881372	29
2	6005	3639.781332881372	29
2	6011	3639.981332881372	34
2	6012	3639.981332881372	34
2	6013	3639.981332881372	34
2	6014	3639.981332881372	34
2	6015	3639.981332881372	34
2	6021	3640.481332881372	35
2	6082	3643.281332881372	36
2	7367	4421.178147202302	38
2	7368	4421.278147202302	38
2	7374	4421.478147202302	43
2	7375	4421.478147202302	43
2	7376	4421.478147202302	43
2	7377	4421.478147202302	43
2	7378	4421.478147202302	43
2	7390	4421.978147202302	44
2	7446	4424.078147202302	45
2	8594	4858.363343179578	45
2	8647	4860.263343179578	46
2	8762	4864.363343179578	47
2	8907	4869.263343179578	48
2	9297	5084.587786490912	49
2	9568	5340.249603249258	50
2	11137	5847.438659470902	51
2	11274	5852.338659470902	52
2	11744	6065.631343949888	53
2	15087	7443.874820090575	54
2	15581	7452.474820090575	55
2	15605	7452.774820090575	56
2	15631	7452.974820090575	57
2	15643	7453.174820090575	58
2	15656	7453.274820090575	58
2	15670	7453.474820090575	63
2	15671	7453.474820090575	63
2	15672	7453.474820090575	63
2	15673	7453.474820090575	63
2	15674	7453.474820090575	63
2	15716	7453.974820090575	64
2	15898	7456.074820090575	65
2	17498	7946.862455512827	66
2	17519	7947.462455512827	67
2	17546	7948.262455512827	68
2	17923	8270.155757874578	69
2	17926	8270.455757874578	70
2	17936	8270.655757874578	71
2	17938	8270.855757874578	72
2	17939	8270.955757874578	72
2	17945	8271.155757874578	77
2	17946	8271.155757874578	77
2	17947	8271.155757874578	77
2	17948	8271.155757874578	77
2	17949	8271.155757874578	77
2	17955	8271.655757874578	78
2	18046	8275.055757874578	79
2	18732	9531.621750417398	80
2	18880	9536.321750417398	81
2	18892	9537.221750417398	82
2	18894	9537.221750417398	83
2	18899	9537.421750417398	84
2	18900	9537.521750417398	84
2	18904	9537.521750417398	85
2	18906	9537.521750417398	85
2	18909	9537.821750417398	86
2	18913	9537.821750417398	87
2	18915	9538.021750417398	88
2	18916	9538.121750417398	88
2	18918	9538.121750417398	93
2	18923	9538.321750417398	93
2	18924	9538.321750417398	93
2	18925	9538.321750417398	93
2	18926	9538.321750417398	93
2	18938	9538.821750417398	94
2	19145	9545.421750417398	95
2	19147	9545.421750417398	96
2	19150	9545.721750417398	97
2	19154	9545.721750417398	98
2	19156	9545.921750417398	99
2	19157	9546.021750417398	99
2	19159	9546.021750417398	104
2	19164	9546.221750417398	104
2	19165	9546.221750417398	104
2	19166	9546.221750417398	104
2	19167	9546.221750417398	104
2	19179	9546.721750417398	105
2	19386	9553.321750417398	106
2	19388	9553.321750417398	107
2	19391	9553.621750417398	108
2	19395	9553.621750417398	109
2	19397	9553.821750417398	110
2	19398	9553.921750417398	110
2	19400	9553.921750417398	115
2	19405	9554.121750417398	115
2	19406	9554.121750417398	115
2	19407	9554.121750417398	115
2	19408	9554.121750417398	115
2	19420	9554.621750417398	116
2	19614	9560.521750417398	117
2	20752	14237.18287233629	118
2	21046	14246.38287233629	119
2	21295	14772.794964296468	120
2	21725	15205.05739184494	121
2	23321	15311.94945918264	122
2	23355	15376.991830207104	123
2	23767	15385.391830207104	124
2	23806	15385.991830207104	125
2	24252	16007.8009824318	126
2	24273	16008.4009824318	127
2	24302	16009.2009824318	128
2	25149	17169.881203680064	129
2	25170	17170.481203680064	130
2	25199	17171.281203680064	131
2	26037	18103.6872917845	132
2	26058	18104.2872917845	133
2	26087	18105.0872917845	134
2	26693	18350.512182170212	135
2	27047	18725.131091496064	136
2	27071	18725.731091496064	137
2	27079	18726.031091496064	138
2	27083	18726.031091496064	139
2	27086	18726.231091496064	140
2	27092	18726.231091496064	140
2	27094	18726.331091496064	141
2	27096	18726.331091496064	146
2	27102	18726.531091496064	146
2	27103	18726.531091496064	146
2	27104	18726.531091496064	146
2	27105	18726.531091496064	146
2	27106	18726.531091496064	147
2	27110	18726.531091496064	148
2	27114	18726.731091496064	149
2	27115	18726.831091496064	149
2	27118	18726.831091496064	154
2	27133	18727.031091496064	154
2	27134	18727.031091496064	155
2	27135	18727.031091496064	155
2	27136	18727.031091496064	155
2	27137	18727.031091496064	155
2	27167	18727.531091496064	156
2	27243	18728.631091496064	157
2	27270	18728.931091496064	158
2	27280	18729.231091496064	159
2	27291	18729.231091496064	160
2	27295	18729.431091496064	161
2	27297	18729.531091496064	161
2	27307	18729.531091496064	166
2	27314	18729.731091496064	166
2	27315	18729.731091496064	166
2	27316	18729.731091496064	166
2	27317	18729.731091496064	166
2	27350	18730.231091496064	167
2	27415	18731.331091496064	168
2	27464	18732.131091496064	169
2	27472	18732.431091496064	170
2	27476	18732.431091496064	171
2	27490	18732.631091496064	172
2	27491	18732.731091496064	172
2	27493	18732.731091496064	177
2	27501	18732.931091496064	177
2	27502	18732.931091496064	177
2	27503	18732.931091496064	177
2	27504	18732.931091496064	177
2	27510	18733.031091496064	178
2	27530	18733.331091496064	179
2	27537	18733.431091496064	180
2	27548	18733.631091496064	181
2	27552	18733.631091496064	182
2	27555	18733.831091496064	183
2	27562	18733.931091496064	183
2	27565	18733.931091496064	188
2	27574	18734.131091496064	188
2	27575	18734.131091496064	188
2	27576	18734.131091496064	188
2	27577	18734.131091496064	188
2	27604	18734.631091496064	189
2	27614	18734.731091496064	190
2	27659	18735.531091496064	191
2	27664	18735.831091496064	192
2	27668	18735.831091496064	193
2	27671	18736.031091496064	194
2	27672	18736.031091496064	195
2	27675	18736.131091496064	195
2	29469	25436.576521575356	196
2	29507	25437.176521575356	197
2	30896	30768.720643074712	198
2	30901	30768.920643074712	199
2	30903	30769.120643074712	200
2	30904	30769.220643074712	200
2	30907	30769.220643074712	206
2	30908	30769.220643074712	206
2	30913	30769.420643074712	206
2	30914	30769.420643074712	206
2	30915	30769.420643074712	206
2	30916	30769.420643074712	206
2	30922	30769.920643074712	207
2	31031	30773.920643074712	208
2	32417	34739.625539258316	209
2	32436	34740.225539258316	210
2	32463	34741.025539258316	211
2	33433	41312.49991641728	212
2	33438	41312.69991641728	213
2	33440	41312.89991641728	214
2	33441	41312.99991641728	214
2	33453	41313.39991641728	215
2	33646	41964.68602290236	216
2	33651	41964.68602290236	217
2	33653	41964.88602290236	218
2	33654	41964.98602290236	218
2	33658	41964.98602290236	225
2	33659	41964.98602290236	225
2	33660	41964.98602290236	225