version 2
run allAtOnce-0-20130122-17:03:10-9994
attr configname allAtOnce
attr datetime 20130122-17:03:10
attr experiment allAtOnce
attr inifile omnetpp.ini
attr iterationvars "$0=128, $1=100"
attr iterationvars2 "$0=128, $1=100, $repetition=0"
attr measurement "$0=128, $1=100"
attr network SimphonyDHTNetwork
attr processid 9994
attr repetition 0
attr replication #0
attr resultdir results
attr runnumber 0
attr seedset 0

vector 0  SimphonyDHTNetwork.members[6]  ""  ETV
vector 1  SimphonyDHTNetwork.members[7]  ""  ETV
vector 2  SimphonyDHTNetwork.members[8]  ""  ETV
vector 3  SimphonyDHTNetwork.members[15]  ""  ETV
vector 4  SimphonyDHTNetwork.members[16]  ""  ETV
vector 5  SimphonyDHTNetwork.members[17]  ""  ETV
vector 6  SimphonyDHTNetwork.members[5]  ""  ETV
vector 7  SimphonyDHTNetwork.members[14]  ""  ETV
vector 8  SimphonyDHTNetwork.members[4]  ""  ETV
vector 9  SimphonyDHTNetwork.members[13]  ""  ETV
vector 10  SimphonyDHTNetwork.members[3]  ""  ETV
vector 11  SimphonyDHTNetwork.members[12]  ""  ETV
vector 12  SimphonyDHTNetwork.members[2]  ""  ETV
vector 13  SimphonyDHTNetwork.members[11]  ""  ETV
vector 14  SimphonyDHTNetwork.members[1]  ""  ETV
vector 15  SimphonyDHTNetwork.members[10]  ""  ETV
vector 16  SimphonyDHTNetwork.members[0]  ""  ETV
vector 17  SimphonyDHTNetwork.members[9]  ""  ETV
vector 18  SimphonyDHTNetwork.members[63]  ""  ETV
vector 19  SimphonyDHTNetwork.members[62]  ""  ETV
vector 20  SimphonyDHTNetwork.members[53]  ""  ETV
vector 21  SimphonyDHTNetwork.members[54]  ""  ETV
vector 22  SimphonyDHTNetwork.members[55]  ""  ETV
vector 23  SimphonyDHTNetwork.members[52]  ""  ETV
vector 24  SimphonyDHTNetwork.members[43]  ""  ETV
vector 25  SimphonyDHTNetwork.members[44]  ""  ETV
vector 26  SimphonyDHTNetwork.members[45]  ""  ETV
vector 27  SimphonyDHTNetwork.members[61]  ""  ETV
vector 28  SimphonyDHTNetwork.members[42]  ""  ETV
vector 29  SimphonyDHTNetwork.members[64]  ""  ETV
vector 30  SimphonyDHTNetwork.members[41]  ""  ETV
vector 31  SimphonyDHTNetwork.members[32]  ""  ETV
vector 32  SimphonyDHTNetwork.members[33]  ""  ETV
vector 33  SimphonyDHTNetwork.members[34]  ""  ETV
vector 34  SimphonyDHTNetwork.members[50]  ""  ETV
vector 35  SimphonyDHTNetwork.members[51]  ""  ETV
vector 36  SimphonyDHTNetwork.members[31]  ""  ETV
vector 37  SimphonyDHTNetwork.members[22]  ""  ETV
vector 38  SimphonyDHTNetwork.members[23]  ""  ETV
vector 39  SimphonyDHTNetwork.members[24]  ""  ETV
vector 40  SimphonyDHTNetwork.members[40]  ""  ETV
vector 41  SimphonyDHTNetwork.members[21]  ""  ETV
vector 42  SimphonyDHTNetwork.members[30]  ""  ETV
vector 43  SimphonyDHTNetwork.members[39]  ""  ETV
vector 44  SimphonyDHTNetwork.members[29]  ""  ETV
vector 45  SimphonyDHTNetwork.members[20]  ""  ETV
vector 46  SimphonyDHTNetwork.members[38]  ""  ETV
vector 47  SimphonyDHTNetwork.members[28]  ""  ETV
vector 48  SimphonyDHTNetwork.members[19]  ""  ETV
vector 49  SimphonyDHTNetwork.members[37]  ""  ETV
vector 50  SimphonyDHTNetwork.members[27]  ""  ETV
vector 51  SimphonyDHTNetwork.members[18]  ""  ETV
vector 52  SimphonyDHTNetwork.members[36]  ""  ETV
vector 53  SimphonyDHTNetwork.members[26]  ""  ETV
vector 54  SimphonyDHTNetwork.members[35]  ""  ETV
vector 55  SimphonyDHTNetwork.members[25]  ""  ETV
vector 56  SimphonyDHTNetwork.members[65]  ""  ETV
vector 57  SimphonyDHTNetwork.members[66]  ""  ETV
vector 58  SimphonyDHTNetwork.members[49]  ""  ETV
vector 59  SimphonyDHTNetwork.members[47]  ""  ETV
vector 60  SimphonyDHTNetwork.members[48]  ""  ETV
vector 61  SimphonyDHTNetwork.members[67]  ""  ETV
vector 62  SimphonyDHTNetwork.members[68]  ""  ETV
vector 63  SimphonyDHTNetwork.members[69]  ""  ETV
vector 64  SimphonyDHTNetwork.members[46]  ""  ETV
vector 65  SimphonyDHTNetwork.members[70]  ""  ETV
vector 66  SimphonyDHTNetwork.members[71]  ""  ETV
vector 67  SimphonyDHTNetwork.members[72]  ""  ETV
vector 68  SimphonyDHTNetwork.members[73]  ""  ETV
vector 69  SimphonyDHTNetwork.members[74]  ""  ETV
vector 70  SimphonyDHTNetwork.members[75]  ""  ETV
vector 71  SimphonyDHTNetwork.members[76]  ""  ETV
vector 72  SimphonyDHTNetwork.members[60]  ""  ETV
vector 73  SimphonyDHTNetwork.members[59]  ""  ETV
vector 74  SimphonyDHTNetwork.members[58]  ""  ETV
vector 75  SimphonyDHTNetwork.members[57]  ""  ETV
vector 76  SimphonyDHTNetwork.members[56]  ""  ETV
vector 77  SimphonyDHTNetwork.members[77]  ""  ETV
vector 78  SimphonyDHTNetwork.members[78]  ""  ETV
vector 79  SimphonyDHTNetwork.members[79]  ""  ETV
vector 80  SimphonyDHTNetwork.members[80]  ""  ETV
vector 81  SimphonyDHTNetwork.members[81]  ""  ETV
vector 82  SimphonyDHTNetwork.members[82]  ""  ETV
vector 83  SimphonyDHTNetwork.members[83]  ""  ETV
vector 84  SimphonyDHTNetwork.members[84]  ""  ETV
vector 85  SimphonyDHTNetwork.members[85]  ""  ETV
vector 86  SimphonyDHTNetwork.members[86]  ""  ETV
vector 87  SimphonyDHTNetwork.members[87]  ""  ETV
vector 88  SimphonyDHTNetwork.members[88]  ""  ETV
vector 89  SimphonyDHTNetwork.members[89]  ""  ETV
vector 90  SimphonyDHTNetwork.members[90]  ""  ETV
vector 91  SimphonyDHTNetwork.members[91]  ""  ETV
vector 92  SimphonyDHTNetwork.members[92]  ""  ETV
vector 93  SimphonyDHTNetwork.members[93]  ""  ETV
vector 94  SimphonyDHTNetwork.members[94]  ""  ETV
vector 95  SimphonyDHTNetwork.members[95]  ""  ETV
vector 96  SimphonyDHTNetwork.members[96]  ""  ETV
vector 97  SimphonyDHTNetwork.members[97]  ""  ETV
vector 98  SimphonyDHTNetwork.members[98]  ""  ETV
vector 99  SimphonyDHTNetwork.members[99]  ""  ETV
vector 100  SimphonyDHTNetwork.members[100]  ""  ETV
vector 101  SimphonyDHTNetwork.members[101]  ""  ETV
vector 102  SimphonyDHTNetwork.members[102]  ""  ETV
vector 103  SimphonyDHTNetwork.members[103]  ""  ETV
vector 104  SimphonyDHTNetwork.members[104]  ""  ETV
vector 105  SimphonyDHTNetwork.members[105]  ""  ETV
vector 106  SimphonyDHTNetwork.members[106]  ""  ETV
vector 107  SimphonyDHTNetwork.members[107]  ""  ETV
vector 108  SimphonyDHTNetwork.members[108]  ""  ETV
vector 109  SimphonyDHTNetwork.members[109]  ""  ETV
vector 110  SimphonyDHTNetwork.members[110]  ""  ETV
vector 111  SimphonyDHTNetwork.members[111]  ""  ETV
vector 112  SimphonyDHTNetwork.members[112]  ""  ETV
vector 113  SimphonyDHTNetwork.members[113]  ""  ETV
vector 114  SimphonyDHTNetwork.members[114]  ""  ETV
vector 115  SimphonyDHTNetwork.members[115]  ""  ETV
vector 116  SimphonyDHTNetwork.members[116]  ""  ETV
vector 117  SimphonyDHTNetwork.members[117]  ""  ETV
vector 118  SimphonyDHTNetwork.members[118]  ""  ETV
vector 119  SimphonyDHTNetwork.members[119]  ""  ETV
vector 120  SimphonyDHTNetwork.members[120]  ""  ETV
vector 121  SimphonyDHTNetwork.members[121]  ""  ETV
vector 122  SimphonyDHTNetwork.members[122]  ""  ETV
vector 123  SimphonyDHTNetwork.members[123]  ""  ETV
vector 124  SimphonyDHTNetwork.members[124]  ""  ETV
vector 125  SimphonyDHTNetwork.members[125]  ""  ETV
vector 126  SimphonyDHTNetwork.members[126]  ""  ETV
vector 127  SimphonyDHTNetwork.members[127]  ""  ETV
0	2	6508.931290419592	0
0	5	6509.231290419592	1
0	15	6509.431290419592	2
0	17	6509.631290419592	3
0	18	6509.731290419592	3
0	24	6509.931290419592	8
0	25	6509.931290419592	8
0	26	6509.931290419592	8
0	27	6509.931290419592	8
0	28	6509.931290419592	8
0	34	6510.431290419592	9
0	159	6516.031290419592	10
0	592	6530.531290419592	11
0	595	6530.831290419592	12
0	605	6531.031290419592	13
0	607	6531.231290419592	14
0	608	6531.331290419592	14
0	614	6531.531290419592	19
0	615	6531.531290419592	19
0	616	6531.531290419592	19
0	617	6531.531290419592	19
0	618	6531.531290419592	19
0	623	6532.031290419592	20
0	801	6613.747973998014	21
0	804	6614.047973998014	22
0	814	6614.247973998014	23
0	816	6614.447973998014	24
0	817	6614.547973998014	24
0	823	6614.747973998014	29
0	824	6614.747973998014	29
0	825	6614.747973998014	29
0	826	6614.747973998014	29
0	827	6614.747973998014	29
0	832	6615.247973998014	30
0	855	6616.247973998014	31
0	1067	6705.403124587956	32
0	1088	6706.003124587956	33
0	1109	6706.603124587956	34
0	1260	6711.703124587956	35
0	1281	6712.303124587956	36
0	1530	6806.102522519847	37
0	1533	6806.402522519847	38
0	1543	6806.602522519847	39
0	1545	6806.802522519847	40
0	1546	6806.902522519847	40
0	1552	6807.102522519847	45
0	1553	6807.102522519847	45
0	1554	6807.102522519847	45
0	1555	6807.102522519847	45
0	1556	6807.102522519847	45
0	1566	6807.602522519847	46
0	1627	6810.402522519847	47
0	1682	6812.302522519847	48
0	1685	6812.602522519847	49
0	1695	6812.802522519847	50
0	1697	6813.002522519847	51
0	1698	6813.102522519847	51
0	1704	6813.302522519847	56
0	1705	6813.302522519847	56
0	1706	6813.302522519847	56
0	1707	6813.302522519847	56
0	1708	6813.302522519847	56
0	1718	6813.802522519847	57
0	1762	6815.902522519847	58
0	1790	6918.05741072413	59
0	1811	6918.65741072413	60
0	2115	6929.65741072413	61
0	2118	6929.95741072413	62
0	2128	6930.15741072413	63
0	2130	6930.35741072413	64
0	2131	6930.45741072413	64
0	2137	6930.65741072413	69
0	2138	6930.65741072413	69
0	2139	6930.65741072413	69
0	2140	6930.65741072413	69
0	2141	6930.65741072413	69
0	2151	6931.15741072413	70
0	2195	6933.25741072413	71
0	2286	6936.15741072413	72
0	2307	6936.75741072413	73
0	2496	7010.317308960444	74
0	2593	7103.247065404923	75
0	2645	7105.047065404923	76
0	2662	7105.747065404923	77
0	2669	7106.047065404923	78
0	2679	7106.247065404923	79
0	2681	7106.447065404923	80
0	2682	7106.547065404923	80
0	2688	7106.747065404923	85
0	2689	7106.747065404923	85
0	2690	7106.747065404923	85
0	2691	7106.747065404923	85
0	2692	7106.747065404923	85
0	2702	7107.247065404923	86
0	2716	7107.947065404923	87
0	3015	7211.383415062305	88
0	3022	7211.683415062305	89
0	3032	7211.883415062305	90
0	3034	7212.083415062305	91
0	3035	7212.183415062305	91
0	3046	7212.883415062305	92
0	3050	7212.883415062305	93
0	3052	7213.083415062305	94
0	3053	7213.183415062305	94
0	3055	7213.183415062305	100
0	3061	7213.383415062305	100
0	3062	7213.383415062305	100
0	3063	7213.383415062305	100
0	3064	7213.383415062305	100
0	3065	7213.383415062305	100
0	3075	7213.883415062305	101
0	3142	7216.683415062305	102
0	3328	7316.726341419724	103
0	3802	7409.430830321484	104
0	4245	7424.330830321484	105
0	4252	7424.630830321484	106
0	4262	7424.830830321484	107
0	4264	7425.030830321484	108
0	4265	7425.130830321484	108
0	4281	7426.130830321484	109
0	4285	7426.130830321484	110
0	4287	7426.330830321484	111
0	4288	7426.430830321484	111
0	4318	7504.147216608546	112
0	5008	7616.165086534365	113
0	5016	7616.265086534365	114
0	5049	7616.765086534365	115
0	5057	7616.865086534365	116
0	5090	7617.365086534365	117
0	5098	7617.465086534365	118
0	5231	7620.065086534365	119
0	5254	7620.365086534365	120
0	5265	7620.465086534365	121
0	5266	7620.565086534365	122
0	5274	7620.765086534365	123
0	5279	7620.765086534365	124
0	5280	7620.865086534365	124
0	5288	7620.865086534365	131
0	5289	7620.865086534365	131
0	5295	7620.965086534365	131
0	5296	7621.065086534365	132
0	5297	7621.065086534365	132
0	5298	7621.065086534365	132
0	5299	7621.065086534365	132
0	5300	7621.065086534365	132
0	5303	7621.165086534365	133
0	5304	7621.265086534365	133
0	5308	7621.265086534365	140
0	5309	7621.265086534365	140
0	5317	7621.465086534365	140
0	5318	7621.465086534365	140
0	5319	7621.465086534365	140
0	5320	7621.465086534365	140
0	5321	7621.465086534365	140
0	5327	7621.565086534365	141
0	5347	7621.965086534365	142
0	5475	7624.365086534365	143
0	5483	7624.765086534365	144
0	5547	7627.165086534365	145
0	5554	7627.465086534365	146
0	5564	7627.665086534365	147
0	5566	7627.865086534365	148
0	5567	7627.965086534365	148
0	5570	7627.965086534365	155
0	5571	7627.965086534365	155
0	5577	7628.165086534365	155
0	5578	7628.165086534365	155
0	5579	7628.165086534365	155
0	5580	7628.165086534365	155
0	5581	7628.165086534365	155
0	5591	7628.665086534365	156
0	5662	7631.465086534365	157
0	5979	7724.987578737502	158
0	5986	7725.287578737502	159
0	5996	7725.487578737502	160
0	5998	7725.687578737502	161
0	5999	7725.787578737502	161
0	6002	7725.787578737502	168
0	6003	7725.787578737502	168
0	6009	7725.987578737502	168
0	6010	7725.987578737502	168
0	6011	7725.987578737502	168
0	6012	7725.987578737502	168
0	6013	7725.987578737502	168
0	6023	7726.487578737502	169
0	6056	7727.887578737502	170
0	6186	7732.887578737502	171
0	6878	7940.151431777147	172
0	6885	7940.451431777147	173
0	6895	7940.651431777147	174
0	6897	7940.851431777147	175
0	6898	7940.951431777147	175
0	6901	7940.951431777147	182
0	6902	7940.951431777147	182
0	6908	7941.151431777147	182
0	6909	7941.151431777147	182
0	6910	7941.151431777147	182
0	6911	7941.151431777147	182
0	6912	7941.151431777147	182
0	6922	7941.651431777147	183
0	6995	7944.451431777147	184
0	7059	7946.651431777147	185
0	7066	7946.951431777147	186
0	7076	7947.151431777147	187
0	7078	7947.351431777147	188
0	7079	7947.451431777147	188
0	7082	7947.451431777147	195
0	7083	7947.451431777147	195
0	7089	7947.651431777147	195
0	7090	7947.651431777147	195
0	7091	7947.651431777147	195
0	7092	7947.651431777147	195
0	7093	7947.651431777147	195
0	7103	7948.151431777147	196
0	7176	7950.951431777147	197
0	7240	7953.151431777147	198
0	7247	7953.451431777147	199
0	7257	7953.651431777147	200
0	7259	7953.851431777147	201
0	7260	7953.951431777147	201
0	7263	7953.951431777147	208
0	7264	7953.951431777147	208
0	7270	7954.151431777147	208
0	7271	7954.151431777147	208
0	7272	7954.151431777147	208
0	7273	7954.151431777147	208
0	7274	7954.151431777147	208
0	7284	7954.651431777147	209
0	7419	7959.651431777147	210
0	7784	8019.179041534802	211
0	7791	8019.479041534802	212
0	7801	8019.679041534802	213
0	7803	8019.879041534802	214
0	7804	8019.979041534802	214
0	7807	8019.979041534802	221
0	7808	8019.979041534802	221
0	7814	8020.179041534802	221
0	7815	8020.179041534802	221
0	7816	8020.179041534802	221
0	7817	8020.179041534802	221
0	7818	8020.179041534802	221
0	7828	8020.679041534802	222
0	7861	8022.079041534802	223
0	7937	8103.26020972508	224
0	8734	8221.410244092943	225
0	8755	8222.010244092943	226
0	8965	8229.110244092943	227
0	8987	8229.710244092943	228
0	9097	8233.910244092943	229
0	9210	8311.283929678289	230
0	9218	8311.783929678289	231
0	9220	8311.783929678289	232
0	9225	8311.983929678289	233
0	9226	8312.083929678289	233
0	9230	8312.083929678289	234
0	9232	8312.083929678289	234
0	9235	8312.383929678289	235
0	9239	8312.383929678289	236
0	9241	8312.583929678289	237
0	9242	8312.683929678289	237
0	9246	8312.683929678289	244
0	9247	8312.683929678289	244
0	9248	8312.683929678289	244
0	9253	8312.883929678289	244
0	9254	8312.883929678289	244
0	9255	8312.883929678289	244
0	9256	8312.883929678289	244
0	9268	8313.383929678289	245
0	9282	8314.083929678289	246
0	9284	8314.083929678289	247
0	9287	8314.383929678289	248
0	9374	8316.883929678289	249
0	9377	8317.183929678289	250
0	9887	8420.643438065878	251
0	9890	8420.943438065878	252
0	10075	8427.043438065878	253
0	10078	8427.343438065878	254
0	10211	8511.765908707858	255
0	10317	8513.565908707858	256
0	10411	8515.265908707858	257
0	10555	8519.465908707858	258
0	11319	8711.192208115644	259
0	11340	8711.792208115644	260
0	11361	8712.392208115644	261
0	11599	8720.292208115644	262
0	11707	8723.392208115644	263
0	12377	8827.886587300188	264
0	12529	8832.286587300188	265
0	12532	8832.586587300188	266
0	12612	8904.124199928911	267
0	12633	8904.724199928911	268
0	12654	8905.324199928911	269
0	12937	8915.424199928911	270
0	12958	8916.024199928911	271
0	12979	8916.624199928911	272
0	13131	8921.424199928911	273
0	13134	8921.724199928911	274
0	13179	9023.215068984741	275
0	13203	9023.815068984741	276
0	13248	9025.015068984741	277
0	13532	9033.615068984741	278
0	13535	9033.915068984741	279
0	13819	9138.522816568843	280
0	13822	9138.822816568843	281
0	13863	9139.922816568843	282
0	13866	9140.222816568843	283
0	13970	9143.422816568843	284
0	13973	9143.722816568843	285
0	14086	9212.896079635329	286
0	14703	9233.096079635329	287
0	14706	9233.396079635329	288
0	15623	9409.863793943295	289
0	15794	9414.463793943295	290
0	15797	9414.763793943295	291
0	16096	9523.134598798571	292
0	16110	9523.334598798571	293
0	16112	9523.534598798571	294
0	16113	9523.634598798571	294
0	16117	9523.634598798571	301
0	16118	9523.634598798571	301
0	16119	9523.634598798571	301
0	16124	9523.834598798571	301
0	16125	9523.834598798571	301
0	16126	9523.834598798571	301
0	16127	9523.834598798571	301
0	16139	9524.334598798571	302
0	16195	9526.434598798571	303
0	16232	9527.934598798571	304
0	16246	9528.134598798571	305
0	16248	9528.334598798571	306
0	16249	9528.434598798571	306
0	16253	9528.434598798571	313
0	16254	9528.434598798571	313
0	16255	9528.434598798571	313
0	16260	9528.634598798571	313
0	16261	9528.634598798571	313
0	16262	9528.634598798571	313
0	16263	9528.634598798571	313
0	16275	9529.134598798571	314
0	16310	9530.534598798571	315
0	16347	9532.034598798571	316
0	16449	9640.530065832436	317
0	16452	9640.830065832436	318
0	16458	9640.830065832436	319
0	16460	9641.030065832436	320
0	16461	9641.130065832436	320
0	16465	9641.130065832436	327
0	16466	9641.130065832436	327
0	16467	9641.130065832436	327
0	16472	9641.330065832436	327
0	16473	9641.330065832436	327
0	16474	9641.330065832436	327
0	16475	9641.330065832436	327
0	16480	9641.830065832436	328
0	16777	9650.230065832436	329
0	16798	9650.830065832436	330
0	16819	9651.430065832436	331
0	17170	9719.822385672465	332
0	17264	9723.222385672465	333
0	17358	9726.622385672465	334
0	17800	9813.535266473621	335
0	17803	9813.835266473621	336
0	18181	9907.830201332741	337
0	18419	9911.530201332741	338
0	18649	9915.230201332741	339
0	18854	9918.930201332741	340
0	18867	9919.130201332741	341
0	18869	9919.330201332741	342
0	18870	9919.430201332741	342
0	20603	10305.550187477546	343
0	20606	10305.850187477546	344
0	20767	10310.750187477546	345
0	20770	10311.050187477546	346
0	20858	10313.650187477546	347
0	20861	10313.950187477546	348
0	20867	10313.950187477546	349
0	20869	10314.150187477546	350
0	20870	10314.250187477546	350
0	21204	10421.852820168437	351
0	21434	10428.252820168437	352
0	21437	10428.552820168437	353
0	21443	10428.552820168437	354
0	21445	10428.752820168437	355
0	21446	10428.852820168437	355
0	21814	10526.39499396068	356
0	21818	10526.39499396068	357
0	21821	10526.59499396068	358
0	21829	10526.69499396068	358
0	21834	10526.69499396068	366
0	21835	10526.69499396068	366
0	21836	10526.69499396068	366
0	21837	10526.69499396068	366
0	21843	10526.89499396068	366
0	21844	10526.89499396068	366
0	21845	10526.89499396068	366
0	21846	10526.89499396068	366
0	21849	10526.89499396068	367
0	21876	10527.39499396068	368
0	21971	10528.89499396068	369
0	22033	10529.79499396068	370
0	22155	10532.09499396068	371
0	22159	10532.09499396068	372
0	22162	10532.29499396068	373
0	22165	10532.29499396068	373
0	22172	10532.39499396068	374
0	22177	10532.39499396068	382
0	22178	10532.39499396068	382
0	22179	10532.39499396068	382
0	22180	10532.39499396068	382
0	22186	10532.59499396068	382
0	22187	10532.59499396068	382
0	22188	10532.59499396068	382
0	22189	10532.59499396068	382
0	22219	10533.09499396068	383
0	22247	10533.59499396068	384
0	22325	10534.99499396068	385
0	22418	10537.79499396068	386
0	22439	10538.39499396068	387
0	22588	10604.4741047607	388
0	23389	10804.157388424067	389
0	23572	10809.357388424067	390
0	23999	10923.748304499832	391
0	24020	10924.348304499832	392
0	24041	10924.948304499832	393
0	24391	10935.848304499832	394
0	24394	10936.148304499832	395
0	24511	11035.543704530511	396
0	24514	11035.843704530511	397
0	24809	11113.393829336446	398
0	25097	11121.593829336446	399
0	25100	11121.893829336446	400
0	25480	11133.093829336446	401
0	25483	11133.393829336446	402
0	25656	11213.678614104367	403
0	25729	11215.778614104367	404
0	25802	11217.878614104367	405
0	26559	11420.978348841364	406
0	26887	11430.378348841364	407
0	27039	11511.557994609004	408
0	27102	11513.557994609004	409
0	27322	11520.157994609004	410
0	27353	11520.957994609004	411
0	27449	11608.718677712959	412
0	27452	11609.018677712959	413
0	27728	11616.418677712959	414
0	27731	11616.718677712959	415
0	27897	11732.854683576582	416
0	27928	11733.654683576582	417
0	28281	11743.654683576582	418
0	28771	11810.920572416754	419
0	28789	11811.220572416754	420
0	29098	11814.320572416754	421
0	29105	11814.620572416754	422
0	29715	11915.427970106453	423
0	29954	11921.927970106453	424
0	29976	11922.527970106453	425
0	30007	11923.327970106453	426
0	30265	12010.623107982609	427
0	30288	12011.223107982609	428
0	30395	12014.223107982609	429
0	30816	12114.713959901342	430
0	31038	12117.813959901342	431
0	31051	12118.113959901342	432
0	31369	12210.744535654938	433
0	31501	12214.644535654938	434
0	31896	12225.944535654938	435
0	31899	12226.244535654938	436
0	32194	12313.624028804065	437
0	32397	12319.924028804065	438
0	32569	12325.524028804065	439
0	32580	12325.724028804065	440
0	32582	12325.924028804065	441
0	32583	12326.024028804065	441
0	33145	12506.29379781348	442
0	33153	12506.29379781348	443
0	33155	12506.49379781348	444
0	33156	12506.59379781348	444
0	33161	12506.59379781348	452
0	33162	12506.59379781348	452
0	33163	12506.59379781348	452
0	33164	12506.59379781348	452
0	33169	12506.79379781348	452
0	33170	12506.79379781348	452
0	33171	12506.79379781348	452
0	33172	12506.79379781348	452
0	33185	12507.29379781348	453
0	33259	12508.89379781348	454
0	33293	12510.09379781348	455
0	33301	12510.09379781348	456
0	33303	12510.29379781348	457
0	33304	12510.39379781348	457
0	33309	12510.39379781348	465
0	33310	12510.39379781348	465
0	33311	12510.39379781348	465
0	33312	12510.39379781348	465
0	33317	12510.59379781348	465
0	33318	12510.59379781348	465
0	33319	12510.59379781348	465
0	33320	12510.59379781348	465
0	33333	12511.09379781348	466
0	33407	12512.69379781348	467
0	33441	12513.89379781348	468
0	33449	12513.89379781348	469
0	33451	12514.09379781348	470
0	33452	12514.19379781348	470
0	33618	12610.251277156308	471
0	33625	12610.551277156308	472
0	33643	12610.551277156308	473
0	33651	12610.751277156308	474
0	33655	12610.851277156308	474
0	33660	12610.851277156308	482
0	33661	12610.851277156308	482
0	33662	12610.851277156308	482
0	33663	12610.851277156308	482
0	33669	12611.051277156308	482
0	33670	12611.051277156308	482
0	33671	12611.051277156308	482
0	33672	12611.051277156308	482
0	33703	12611.551277156308	483
0	33776	12612.651277156308	484
0	33791	12612.951277156308	485
0	33895	12614.351277156308	486
0	33902	12614.651277156308	487
0	34198	12711.489272158697	488
0	34221	12712.089272158697	489
0	34345	12715.389272158697	490
0	34368	12715.989272158697	491
0	34410	12717.189272158697	492
0	34695	12814.990435172638	493
0	34725	12815.790435172638	494
0	34859	12819.590435172638	495
0	34982	12822.890435172638	496
0	35065	12824.990435172638	497
0	35068	12825.290435172638	498
1	3	6509.031290419592	1
1	4	6509.131290419592	1
1	10	6509.331290419592	6
1	11	6509.331290419592	6
1	12	6509.331290419592	6
1	13	6509.331290419592	6
1	14	6509.331290419592	6
1	20	6509.831290419592	7
1	160	6516.131290419592	8
1	576	6529.931290419592	8
1	579	6530.231290419592	9
1	591	6530.431290419592	10
1	593	6530.631290419592	11
1	594	6530.731290419592	11
1	600	6530.931290419592	16
1	601	6530.931290419592	16
1	602	6530.931290419592	16
1	603	6530.931290419592	16
1	604	6530.931290419592	16
1	610	6531.431290419592	17
1	624	6532.131290419592	18
1	785	6613.147973998014	19
1	788	6613.447973998014	20
1	800	6613.647973998014	21
1	802	6613.847973998014	22
1	803	6613.947973998014	22
1	809	6614.147973998014	27
1	810	6614.147973998014	27
1	811	6614.147973998014	27
1	812	6614.147973998014	27
1	813	6614.147973998014	27
1	819	6614.647973998014	28
1	833	6615.347973998014	29
1	1047	6704.803124587956	30
1	1068	6705.403124587956	31
1	1089	6706.003124587956	32
1	1240	6711.103124587956	33
1	1261	6711.703124587956	34
1	1282	6712.303124587956	35
1	1515	6805.802522519847	36
1	1529	6806.002522519847	37
1	1531	6806.202522519847	38
1	1532	6806.302522519847	38
1	1538	6806.502522519847	43
1	1539	6806.502522519847	43
1	1540	6806.502522519847	43
1	1541	6806.502522519847	43
1	1542	6806.502522519847	43
1	1548	6807.002522519847	44
1	1628	6810.502522519847	45
1	1667	6812.002522519847	46
1	1681	6812.202522519847	47
1	1683	6812.402522519847	48
1	1684	6812.502522519847	48
1	1690	6812.702522519847	53
1	1691	6812.702522519847	53
1	1692	6812.702522519847	53
1	1693	6812.702522519847	53
1	1694	6812.702522519847	53
1	1700	6813.202522519847	54
1	1763	6816.002522519847	55
1	1791	6918.05741072413	56
1	1919	6922.25741072413	57
1	1935	6922.85741072413	58
1	1940	6923.15741072413	59
1	2099	6929.05741072413	60
1	2104	6929.35741072413	61
1	2114	6929.55741072413	62
1	2116	6929.75741072413	63
1	2117	6929.85741072413	63
1	2123	6930.05741072413	68
1	2124	6930.05741072413	68
1	2125	6930.05741072413	68
1	2126	6930.05741072413	68
1	2127	6930.05741072413	68
1	2133	6930.55741072413	69
1	2196	6933.35741072413	70
1	2266	6935.55741072413	71
1	2287	6936.15741072413	72
1	2308	6936.75741072413	73
1	2447	7008.417308960444	74
1	2464	7009.117308960444	75
1	2478	7009.717308960444	76
1	2485	7010.017308960444	77
1	2495	7010.217308960444	78
1	2497	7010.417308960444	79
1	2498	7010.517308960444	79
1	2594	7103.247065404923	80
1	2608	7103.547065404923	81
1	2625	7104.447065404923	82
1	2634	7104.747065404923	83
1	2644	7104.947065404923	84
1	2646	7105.147065404923	85
1	2647	7105.247065404923	85
1	2656	7105.647065404923	86
1	2661	7105.647065404923	87
1	2663	7105.847065404923	88
1	2664	7105.947065404923	88
1	2667	7105.947065404923	95
1	2668	7105.947065404923	95
1	2674	7106.147065404923	95
1	2675	7106.147065404923	95
1	2676	7106.147065404923	95
1	2677	7106.147065404923	95
1	2678	7106.147065404923	95
1	2684	7106.647065404923	96
1	2717	7108.047065404923	97
1	3000	7211.083415062305	98
1	3014	7211.283415062305	99
1	3016	7211.483415062305	100
1	3017	7211.583415062305	100
1	3020	7211.583415062305	107
1	3021	7211.583415062305	107
1	3027	7211.783415062305	107
1	3028	7211.783415062305	107
1	3029	7211.783415062305	107
1	3030	7211.783415062305	107
1	3031	7211.783415062305	107
1	3036	7212.283415062305	108
1	3057	7213.283415062305	109
1	3388	7318.426341419724	110
1	3411	7318.726341419724	111
1	3549	7321.426341419724	112
1	3596	7322.026341419724	113
1	3680	7323.726341419724	114
1	4225	7423.730830321484	115
1	4234	7424.030830321484	116
1	4244	7424.230830321484	117
1	4246	7424.430830321484	118
1	4247	7424.530830321484	118
1	4250	7424.530830321484	125
1	4251	7424.530830321484	125
1	4257	7424.730830321484	125
1	4258	7424.730830321484	125
1	4259	7424.730830321484	125
1	4260	7424.730830321484	125
1	4261	7424.730830321484	125
1	4266	7425.230830321484	126
1	4968	7615.565086534365	127
1	4976	7615.665086534365	128
1	5009	7616.165086534365	129
1	5017	7616.265086534365	130
1	5050	7616.765086534365	131
1	5058	7616.865086534365	132
1	5212	7619.765086534365	133
1	5228	7619.965086534365	134
1	5234	7620.165086534365	135
1	5240	7620.165086534365	136
1	5241	7620.265086534365	136
1	5252	7620.265086534365	143
1	5253	7620.265086534365	143
1	5259	7620.365086534365	143
1	5260	7620.465086534365	144
1	5261	7620.465086534365	144
1	5262	7620.465086534365	144
1	5263	7620.465086534365	144
1	5264	7620.465086534365	144
1	5267	7620.565086534365	145
1	5268	7620.665086534365	145
1	5272	7620.665086534365	152
1	5273	7620.665086534365	152
1	5281	7620.865086534365	152
1	5282	7620.865086534365	152
1	5283	7620.865086534365	152
1	5284	7620.865086534365	152
1	5285	7620.865086534365	152
1	5291	7620.965086534365	153
1	5311	7621.365086534365	154
1	5477	7624.465086534365	155
1	5484	7624.865086534365	156
1	5532	7626.865086534365	157
1	5546	7627.065086534365	158
1	5548	7627.265086534365	159
1	5549	7627.365086534365	159
1	5552	7627.365086534365	166
1	5553	7627.365086534365	166
1	5559	7627.565086534365	166
1	5560	7627.565086534365	166
1	5561	7627.565086534365	166
1	5562	7627.565086534365	166
1	5563	7627.565086534365	166
1	5573	7628.065086534365	167
1	5663	7631.565086534365	168
1	5959	7724.387578737502	169
1	5968	7724.687578737502	170
1	5978	7724.887578737502	171
1	5980	7725.087578737502	172
1	5981	7725.187578737502	172
1	5984	7725.187578737502	179
1	5985	7725.187578737502	179
1	5991	7725.387578737502	179
1	5992	7725.387578737502	179
1	5993	7725.387578737502	179
1	5994	7725.387578737502	179
1	5995	7725.387578737502	179
1	6005	7725.887578737502	180
1	6057	7727.987578737502	181
1	6217	7733.787578737502	182
1	6863	7939.851431777147	183
1	6877	7940.051431777147	184
1	6879	7940.251431777147	185
1	6880	7940.351431777147	185
1	6883	7940.351431777147	192
1	6884	7940.351431777147	192
1	6890	7940.551431777147	192
1	6891	7940.551431777147	192
1	6892	7940.551431777147	192
1	6893	7940.551431777147	192
1	6894	7940.551431777147	192
1	6904	7941.051431777147	193
1	6996	7944.551431777147	194
1	7044	7946.351431777147	195
1	7058	7946.551431777147	196
1	7060	7946.751431777147	197
1	7061	7946.851431777147	197
1	7064	7946.851431777147	204
1	7065	7946.851431777147	204
1	7071	7947.051431777147	204
1	7072	7947.051431777147	204
1	7073	7947.051431777147	204
1	7074	7947.051431777147	204
1	7075	7947.051431777147	204
1	7085	7947.551431777147	205
1	7177	7951.051431777147	206
1	7225	7952.851431777147	207
1	7239	7953.051431777147	208
1	7241	7953.251431777147	209
1	7242	7953.351431777147	209
1	7245	7953.351431777147	216
1	7246	7953.351431777147	216
1	7252	7953.551431777147	216
1	7253	7953.551431777147	216
1	7254	7953.551431777147	216
1	7255	7953.551431777147	216
1	7256	7953.551431777147	216
1	7266	7954.051431777147	217
1	7420	7959.751431777147	218
1	7764	8018.579041534802	219
1	7773	8018.879041534802	220
1	7783	8019.079041534802	221
1	7785	8019.279041534802	222
1	7786	8019.379041534802	222
1	7789	8019.379041534802	229
1	7790	8019.379041534802	229
1	7796	8019.579041534802	229
1	7797	8019.579041534802	229
1	7798	8019.579041534802	229
1	7799	8019.579041534802	229
1	7800	8019.579041534802	229
1	7810	8020.079041534802	230
1	7862	8022.179041534802	231
1	8336	8116.76020972508	232
1	8735	8221.410244092943	233
1	8878	8225.510244092943	234
1	8966	8229.110244092943	235
1	9098	8233.910244092943	236
1	9190	8310.683929678289	237
1	9199	8310.983929678289	238
1	9209	8311.183929678289	239