file 9301673 1358879041                                         
version 2
run allAtOnce-51-20130122-19:23:45-3141
attr configname allAtOnce
attr datetime 20130122-19:23:45
attr experiment allAtOnce
attr inifile omnetpp.ini
attr iterationvars "$0=512, $1=500"
attr iterationvars2 "$0=512, $1=500, $repetition=1"
attr measurement "$0=512, $1=500"
attr network SimphonyDHTNetwork
attr processid 3141
attr repetition 1
attr replication #1
attr resultdir results
attr runnumber 51
attr seedset 51

vector 0  SimphonyDHTNetwork.members[26]  ""  ETV
vector 1  SimphonyDHTNetwork.members[27]  ""  ETV
vector 2  SimphonyDHTNetwork.members[28]  ""  ETV
vector 3  SimphonyDHTNetwork.members[17]  ""  ETV
vector 4  SimphonyDHTNetwork.members[18]  ""  ETV
vector 5  SimphonyDHTNetwork.members[19]  ""  ETV
vector 6  SimphonyDHTNetwork.members[35]  ""  ETV
vector 7  SimphonyDHTNetwork.members[36]  ""  ETV
vector 8  SimphonyDHTNetwork.members[37]  ""  ETV
vector 9  SimphonyDHTNetwork.members[16]  ""  ETV
vector 10  SimphonyDHTNetwork.members[7]  ""  ETV
vector 11  SimphonyDHTNetwork.members[8]  ""  ETV
vector 12  SimphonyDHTNetwork.members[9]  ""  ETV
vector 13  SimphonyDHTNetwork.members[25]  ""  ETV
vector 14  SimphonyDHTNetwork.members[15]  ""  ETV
vector 15  SimphonyDHTNetwork.members[6]  ""  ETV
vector 16  SimphonyDHTNetwork.members[24]  ""  ETV
vector 17  SimphonyDHTNetwork.members[14]  ""  ETV
vector 18  SimphonyDHTNetwork.members[5]  ""  ETV
vector 19  SimphonyDHTNetwork.members[23]  ""  ETV
vector 20  SimphonyDHTNetwork.members[13]  ""  ETV
vector 21  SimphonyDHTNetwork.members[4]  ""  ETV
vector 22  SimphonyDHTNetwork.members[22]  ""  ETV
vector 23  SimphonyDHTNetwork.members[12]  ""  ETV
vector 24  SimphonyDHTNetwork.members[67]  ""  ETV
vector 25  SimphonyDHTNetwork.members[11]  ""  ETV
vector 26  SimphonyDHTNetwork.members[2]  ""  ETV
vector 27  SimphonyDHTNetwork.members[3]  ""  ETV
vector 28  SimphonyDHTNetwork.members[20]  ""  ETV
vector 29  SimphonyDHTNetwork.members[21]  ""  ETV
vector 30  SimphonyDHTNetwork.members[1]  ""  ETV
vector 31  SimphonyDHTNetwork.members[10]  ""  ETV
vector 32  SimphonyDHTNetwork.members[0]  ""  ETV
vector 33  SimphonyDHTNetwork.members[63]  ""  ETV
vector 34  SimphonyDHTNetwork.members[62]  ""  ETV
vector 35  SimphonyDHTNetwork.members[53]  ""  ETV
vector 36  SimphonyDHTNetwork.members[54]  ""  ETV
vector 37  SimphonyDHTNetwork.members[55]  ""  ETV
vector 38  SimphonyDHTNetwork.members[52]  ""  ETV
vector 39  SimphonyDHTNetwork.members[43]  ""  ETV
vector 40  SimphonyDHTNetwork.members[44]  ""  ETV
vector 41  SimphonyDHTNetwork.members[45]  ""  ETV
vector 42  SimphonyDHTNetwork.members[61]  ""  ETV
vector 43  SimphonyDHTNetwork.members[42]  ""  ETV
vector 44  SimphonyDHTNetwork.members[33]  ""  ETV
vector 45  SimphonyDHTNetwork.members[34]  ""  ETV
vector 46  SimphonyDHTNetwork.members[51]  ""  ETV
vector 47  SimphonyDHTNetwork.members[41]  ""  ETV
vector 48  SimphonyDHTNetwork.members[32]  ""  ETV
vector 49  SimphonyDHTNetwork.members[50]  ""  ETV
vector 50  SimphonyDHTNetwork.members[40]  ""  ETV
vector 51  SimphonyDHTNetwork.members[31]  ""  ETV
vector 52  SimphonyDHTNetwork.members[49]  ""  ETV
vector 53  SimphonyDHTNetwork.members[39]  ""  ETV
vector 54  SimphonyDHTNetwork.members[30]  ""  ETV
vector 55  SimphonyDHTNetwork.members[48]  ""  ETV
vector 56  SimphonyDHTNetwork.members[38]  ""  ETV
vector 57  SimphonyDHTNetwork.members[65]  ""  ETV
vector 58  SimphonyDHTNetwork.members[56]  ""  ETV
vector 59  SimphonyDHTNetwork.members[57]  ""  ETV
vector 60  SimphonyDHTNetwork.members[58]  ""  ETV
vector 61  SimphonyDHTNetwork.members[47]  ""  ETV
vector 62  SimphonyDHTNetwork.members[46]  ""  ETV
vector 63  SimphonyDHTNetwork.members[29]  ""  ETV
vector 64  SimphonyDHTNetwork.members[68]  ""  ETV
vector 65  SimphonyDHTNetwork.members[72]  ""  ETV
vector 66  SimphonyDHTNetwork.members[66]  ""  ETV
vector 67  SimphonyDHTNetwork.members[64]  ""  ETV
vector 68  SimphonyDHTNetwork.members[69]  ""  ETV
vector 69  SimphonyDHTNetwork.members[76]  ""  ETV
vector 70  SimphonyDHTNetwork.members[74]  ""  ETV
vector 71  SimphonyDHTNetwork.members[60]  ""  ETV
vector 72  SimphonyDHTNetwork.members[59]  ""  ETV
vector 73  SimphonyDHTNetwork.members[71]  ""  ETV
vector 74  SimphonyDHTNetwork.members[79]  ""  ETV
vector 75  SimphonyDHTNetwork.members[70]  ""  ETV
vector 76  SimphonyDHTNetwork.members[80]  ""  ETV
vector 77  SimphonyDHTNetwork.members[83]  ""  ETV
vector 78  SimphonyDHTNetwork.members[75]  ""  ETV
vector 79  SimphonyDHTNetwork.members[73]  ""  ETV
vector 80  SimphonyDHTNetwork.members[86]  ""  ETV
vector 81  SimphonyDHTNetwork.members[78]  ""  ETV
vector 82  SimphonyDHTNetwork.members[87]  ""  ETV
vector 83  SimphonyDHTNetwork.members[82]  ""  ETV
vector 84  SimphonyDHTNetwork.members[77]  ""  ETV
vector 85  SimphonyDHTNetwork.members[88]  ""  ETV
vector 86  SimphonyDHTNetwork.members[89]  ""  ETV
vector 87  SimphonyDHTNetwork.members[84]  ""  ETV
vector 88  SimphonyDHTNetwork.members[93]  ""  ETV
vector 89  SimphonyDHTNetwork.members[94]  ""  ETV
vector 90  SimphonyDHTNetwork.members[91]  ""  ETV
vector 91  SimphonyDHTNetwork.members[92]  ""  ETV
vector 92  SimphonyDHTNetwork.members[95]  ""  ETV
vector 93  SimphonyDHTNetwork.members[96]  ""  ETV
vector 94  SimphonyDHTNetwork.members[98]  ""  ETV
vector 95  SimphonyDHTNetwork.members[99]  ""  ETV
vector 96  SimphonyDHTNetwork.members[85]  ""  ETV
vector 97  SimphonyDHTNetwork.members[81]  ""  ETV
vector 98  SimphonyDHTNetwork.members[100]  ""  ETV
vector 99  SimphonyDHTNetwork.members[90]  ""  ETV
vector 100  SimphonyDHTNetwork.members[102]  ""  ETV
vector 101  SimphonyDHTNetwork.members[103]  ""  ETV
vector 102  SimphonyDHTNetwork.members[101]  ""  ETV
vector 103  SimphonyDHTNetwork.members[97]  ""  ETV
vector 104  SimphonyDHTNetwork.members[108]  ""  ETV
vector 105  SimphonyDHTNetwork.members[106]  ""  ETV
vector 106  SimphonyDHTNetwork.members[110]  ""  ETV
vector 107  SimphonyDHTNetwork.members[105]  ""  ETV
vector 108  SimphonyDHTNetwork.members[113]  ""  ETV
vector 109  SimphonyDHTNetwork.members[104]  ""  ETV
vector 110  SimphonyDHTNetwork.members[114]  ""  ETV
vector 111  SimphonyDHTNetwork.members[112]  ""  ETV
vector 112  SimphonyDHTNetwork.members[107]  ""  ETV
vector 113  SimphonyDHTNetwork.members[115]  ""  ETV
vector 114  SimphonyDHTNetwork.members[111]  ""  ETV
vector 115  SimphonyDHTNetwork.members[116]  ""  ETV
vector 116  SimphonyDHTNetwork.members[117]  ""  ETV
vector 117  SimphonyDHTNetwork.members[119]  ""  ETV
vector 118  SimphonyDHTNetwork.members[120]  ""  ETV
vector 119  SimphonyDHTNetwork.members[118]  ""  ETV
vector 120  SimphonyDHTNetwork.members[121]  ""  ETV
vector 121  SimphonyDHTNetwork.members[124]  ""  ETV
vector 122  SimphonyDHTNetwork.members[122]  ""  ETV
vector 123  SimphonyDHTNetwork.members[109]  ""  ETV
vector 124  SimphonyDHTNetwork.members[126]  ""  ETV
vector 125  SimphonyDHTNetwork.members[127]  ""  ETV
vector 126  SimphonyDHTNetwork.members[128]  ""  ETV
vector 127  SimphonyDHTNetwork.members[130]  ""  ETV
vector 128  SimphonyDHTNetwork.members[129]  ""  ETV
vector 129  SimphonyDHTNetwork.members[125]  ""  ETV
vector 130  SimphonyDHTNetwork.members[131]  ""  ETV
vector 131  SimphonyDHTNetwork.members[132]  ""  ETV
vector 132  SimphonyDHTNetwork.members[135]  ""  ETV
vector 133  SimphonyDHTNetwork.members[134]  ""  ETV
vector 134  SimphonyDHTNetwork.members[133]  ""  ETV
vector 135  SimphonyDHTNetwork.members[141]  ""  ETV
vector 136  SimphonyDHTNetwork.members[137]  ""  ETV
vector 137  SimphonyDHTNetwork.members[138]  ""  ETV
vector 138  SimphonyDHTNetwork.members[136]  ""  ETV
vector 139  SimphonyDHTNetwork.members[139]  ""  ETV
vector 140  SimphonyDHTNetwork.members[145]  ""  ETV
vector 141  SimphonyDHTNetwork.members[142]  ""  ETV
vector 142  SimphonyDHTNetwork.members[123]  ""  ETV
vector 143  SimphonyDHTNetwork.members[147]  ""  ETV
vector 144  SimphonyDHTNetwork.members[144]  ""  ETV
vector 145  SimphonyDHTNetwork.members[146]  ""  ETV
vector 146  SimphonyDHTNetwork.members[148]  ""  ETV
vector 147  SimphonyDHTNetwork.members[149]  ""  ETV
vector 148  SimphonyDHTNetwork.members[151]  ""  ETV
vector 149  SimphonyDHTNetwork.members[140]  ""  ETV
vector 150  SimphonyDHTNetwork.members[143]  ""  ETV
vector 151  SimphonyDHTNetwork.members[153]  ""  ETV
vector 152  SimphonyDHTNetwork.members[152]  ""  ETV
vector 153  SimphonyDHTNetwork.members[150]  ""  ETV
vector 154  SimphonyDHTNetwork.members[155]  ""  ETV
vector 155  SimphonyDHTNetwork.members[154]  ""  ETV
vector 156  SimphonyDHTNetwork.members[156]  ""  ETV
vector 157  SimphonyDHTNetwork.members[159]  ""  ETV
vector 158  SimphonyDHTNetwork.members[158]  ""  ETV
vector 159  SimphonyDHTNetwork.members[162]  ""  ETV
vector 160  SimphonyDHTNetwork.members[157]  ""  ETV
vector 161  SimphonyDHTNetwork.members[163]  ""  ETV
vector 162  SimphonyDHTNetwork.members[164]  ""  ETV
vector 163  SimphonyDHTNetwork.members[167]  ""  ETV
vector 164  SimphonyDHTNetwork.members[165]  ""  ETV
vector 165  SimphonyDHTNetwork.members[168]  ""  ETV
vector 166  SimphonyDHTNetwork.members[169]  ""  ETV
vector 167  SimphonyDHTNetwork.members[160]  ""  ETV
vector 168  SimphonyDHTNetwork.members[172]  ""  ETV
vector 169  SimphonyDHTNetwork.members[170]  ""  ETV
vector 170  SimphonyDHTNetwork.members[161]  ""  ETV
vector 171  SimphonyDHTNetwork.members[173]  ""  ETV
vector 172  SimphonyDHTNetwork.members[166]  ""  ETV
vector 173  SimphonyDHTNetwork.members[177]  ""  ETV
vector 174  SimphonyDHTNetwork.members[178]  ""  ETV
vector 175  SimphonyDHTNetwork.members[175]  ""  ETV
vector 176  SimphonyDHTNetwork.members[176]  ""  ETV
vector 177  SimphonyDHTNetwork.members[174]  ""  ETV
vector 178  SimphonyDHTNetwork.members[181]  ""  ETV
vector 179  SimphonyDHTNetwork.members[184]  ""  ETV
vector 180  SimphonyDHTNetwork.members[180]  ""  ETV
vector 181  SimphonyDHTNetwork.members[185]  ""  ETV
vector 182  SimphonyDHTNetwork.members[171]  ""  ETV
vector 183  SimphonyDHTNetwork.members[182]  ""  ETV
vector 184  SimphonyDHTNetwork.members[186]  ""  ETV
vector 185  SimphonyDHTNetwork.members[179]  ""  ETV
vector 186  SimphonyDHTNetwork.members[187]  ""  ETV
vector 187  SimphonyDHTNetwork.members[191]  ""  ETV
vector 188  SimphonyDHTNetwork.members[188]  ""  ETV
vector 189  SimphonyDHTNetwork.members[189]  ""  ETV
vector 190  SimphonyDHTNetwork.members[190]  ""  ETV
vector 191  SimphonyDHTNetwork.members[194]  ""  ETV
vector 192  SimphonyDHTNetwork.members[192]  ""  ETV
vector 193  SimphonyDHTNetwork.members[183]  ""  ETV
vector 194  SimphonyDHTNetwork.members[196]  ""  ETV
vector 195  SimphonyDHTNetwork.members[193]  ""  ETV
vector 196  SimphonyDHTNetwork.members[199]  ""  ETV
vector 197  SimphonyDHTNetwork.members[195]  ""  ETV
vector 198  SimphonyDHTNetwork.members[202]  ""  ETV
vector 199  SimphonyDHTNetwork.members[203]  ""  ETV
vector 200  SimphonyDHTNetwork.members[201]  ""  ETV
vector 201  SimphonyDHTNetwork.members[205]  ""  ETV
vector 202  SimphonyDHTNetwork.members[200]  ""  ETV
vector 203  SimphonyDHTNetwork.members[198]  ""  ETV
vector 204  SimphonyDHTNetwork.members[210]  ""  ETV
vector 205  SimphonyDHTNetwork.members[207]  ""  ETV
vector 206  SimphonyDHTNetwork.members[206]  ""  ETV
vector 207  SimphonyDHTNetwork.members[212]  ""  ETV
vector 208  SimphonyDHTNetwork.members[213]  ""  ETV
vector 209  SimphonyDHTNetwork.members[204]  ""  ETV
vector 210  SimphonyDHTNetwork.members[214]  ""  ETV
vector 211  SimphonyDHTNetwork.members[216]  ""  ETV
vector 212  SimphonyDHTNetwork.members[197]  ""  ETV
vector 213  SimphonyDHTNetwork.members[209]  ""  ETV
vector 214  SimphonyDHTNetwork.members[217]  ""  ETV
vector 215  SimphonyDHTNetwork.members[218]  ""  ETV
vector 216  SimphonyDHTNetwork.members[208]  ""  ETV
vector 217  SimphonyDHTNetwork.members[219]  ""  ETV
vector 218  SimphonyDHTNetwork.members[221]  ""  ETV
vector 219  SimphonyDHTNetwork.members[220]  ""  ETV
vector 220  SimphonyDHTNetwork.members[223]  ""  ETV
vector 221  SimphonyDHTNetwork.members[224]  ""  ETV
vector 222  SimphonyDHTNetwork.members[225]  ""  ETV
vector 223  SimphonyDHTNetwork.members[226]  ""  ETV
vector 224  SimphonyDHTNetwork.members[230]  ""  ETV
vector 225  SimphonyDHTNetwork.members[227]  ""  ETV
vector 226  SimphonyDHTNetwork.members[222]  ""  ETV
vector 227  SimphonyDHTNetwork.members[234]  ""  ETV
vector 228  SimphonyDHTNetwork.members[215]  ""  ETV
vector 229  SimphonyDHTNetwork.members[229]  ""  ETV
vector 230  SimphonyDHTNetwork.members[235]  ""  ETV
vector 231  SimphonyDHTNetwork.members[231]  ""  ETV
vector 232  SimphonyDHTNetwork.members[237]  ""  ETV
vector 233  SimphonyDHTNetwork.members[238]  ""  ETV
vector 234  SimphonyDHTNetwork.members[228]  ""  ETV
vector 235  SimphonyDHTNetwork.members[236]  ""  ETV
vector 236  SimphonyDHTNetwork.members[211]  ""  ETV
vector 237  SimphonyDHTNetwork.members[233]  ""  ETV
vector 238  SimphonyDHTNetwork.members[240]  ""  ETV
vector 239  SimphonyDHTNetwork.members[242]  ""  ETV
vector 240  SimphonyDHTNetwork.members[243]  ""  ETV
vector 241  SimphonyDHTNetwork.members[241]  ""  ETV
vector 242  SimphonyDHTNetwork.members[244]  ""  ETV
vector 243  SimphonyDHTNetwork.members[246]  ""  ETV
vector 244  SimphonyDHTNetwork.members[249]  ""  ETV
vector 245  SimphonyDHTNetwork.members[251]  ""  ETV
vector 246  SimphonyDHTNetwork.members[252]  ""  ETV
vector 247  SimphonyDHTNetwork.members[232]  ""  ETV
vector 248  SimphonyDHTNetwork.members[247]  ""  ETV
vector 249  SimphonyDHTNetwork.members[254]  ""  ETV
vector 250  SimphonyDHTNetwork.members[245]  ""  ETV
vector 251  SimphonyDHTNetwork.members[239]  ""  ETV
vector 252  SimphonyDHTNetwork.members[250]  ""  ETV
vector 253  SimphonyDHTNetwork.members[255]  ""  ETV
vector 254  SimphonyDHTNetwork.members[257]  ""  ETV
vector 255  SimphonyDHTNetwork.members[253]  ""  ETV
vector 256  SimphonyDHTNetwork.members[256]  ""  ETV
vector 257  SimphonyDHTNetwork.members[259]  ""  ETV
vector 258  SimphonyDHTNetwork.members[248]  ""  ETV
vector 259  SimphonyDHTNetwork.members[261]  ""  ETV
vector 260  SimphonyDHTNetwork.members[263]  ""  ETV
vector 261  SimphonyDHTNetwork.members[258]  ""  ETV
vector 262  SimphonyDHTNetwork.members[264]  ""  ETV
vector 263  SimphonyDHTNetwork.members[267]  ""  ETV
vector 264  SimphonyDHTNetwork.members[262]  ""  ETV
vector 265  SimphonyDHTNetwork.members[269]  ""  ETV
vector 266  SimphonyDHTNetwork.members[268]  ""  ETV
vector 267  SimphonyDHTNetwork.members[270]  ""  ETV
vector 268  SimphonyDHTNetwork.members[266]  ""  ETV
vector 269  SimphonyDHTNetwork.members[274]  ""  ETV
vector 270  SimphonyDHTNetwork.members[275]  ""  ETV
vector 271  SimphonyDHTNetwork.members[278]  ""  ETV
vector 272  SimphonyDHTNetwork.members[271]  ""  ETV
vector 273  SimphonyDHTNetwork.members[273]  ""  ETV
vector 274  SimphonyDHTNetwork.members[265]  ""  ETV
vector 275  SimphonyDHTNetwork.members[260]  ""  ETV
vector 276  SimphonyDHTNetwork.members[277]  ""  ETV
vector 277  SimphonyDHTNetwork.members[280]  ""  ETV
vector 278  SimphonyDHTNetwork.members[279]  ""  ETV
vector 279  SimphonyDHTNetwork.members[282]  ""  ETV
vector 280  SimphonyDHTNetwork.members[272]  ""  ETV
vector 281  SimphonyDHTNetwork.members[281]  ""  ETV
vector 282  SimphonyDHTNetwork.members[276]  ""  ETV
vector 283  SimphonyDHTNetwork.members[285]  ""  ETV
vector 284  SimphonyDHTNetwork.members[284]  ""  ETV
vector 285  SimphonyDHTNetwork.members[286]  ""  ETV
vector 286  SimphonyDHTNetwork.members[288]  ""  ETV
vector 287  SimphonyDHTNetwork.members[290]  ""  ETV
vector 288  SimphonyDHTNetwork.members[283]  ""  ETV
vector 289  SimphonyDHTNetwork.members[293]  ""  ETV
vector 290  SimphonyDHTNetwork.members[289]  ""  ETV
vector 291  SimphonyDHTNetwork.members[287]  ""  ETV
vector 292  SimphonyDHTNetwork.members[291]  ""  ETV
vector 293  SimphonyDHTNetwork.members[301]  ""  ETV
vector 294  SimphonyDHTNetwork.members[299]  ""  ETV
vector 295  SimphonyDHTNetwork.members[296]  ""  ETV
vector 296  SimphonyDHTNetwork.members[300]  ""  ETV
vector 297  SimphonyDHTNetwork.members[298]  ""  ETV
vector 298  SimphonyDHTNetwork.members[304]  ""  ETV
vector 299  SimphonyDHTNetwork.members[294]  ""  ETV
vector 300  SimphonyDHTNetwork.members[302]  ""  ETV
vector 301  SimphonyDHTNetwork.members[292]  ""  ETV
vector 302  SimphonyDHTNetwork.members[306]  ""  ETV
vector 303  SimphonyDHTNetwork.members[297]  ""  ETV
vector 304  SimphonyDHTNetwork.members[303]  ""  ETV
vector 305  SimphonyDHTNetwork.members[295]  ""  ETV
vector 306  SimphonyDHTNetwork.members[305]  ""  ETV
vector 307  SimphonyDHTNetwork.members[309]  ""  ETV
vector 308  SimphonyDHTNetwork.members[312]  ""  ETV
vector 309  SimphonyDHTNetwork.members[311]  ""  ETV
vector 310  SimphonyDHTNetwork.members[310]  ""  ETV
vector 311  SimphonyDHTNetwork.members[307]  ""  ETV
vector 312  SimphonyDHTNetwork.members[314]  ""  ETV
vector 313  SimphonyDHTNetwork.members[317]  ""  ETV
vector 314  SimphonyDHTNetwork.members[315]  ""  ETV
vector 315  SimphonyDHTNetwork.members[319]  ""  ETV
vector 316  SimphonyDHTNetwork.members[316]  ""  ETV
vector 317  SimphonyDHTNetwork.members[313]  ""  ETV
vector 318  SimphonyDHTNetwork.members[323]  ""  ETV
vector 319  SimphonyDHTNetwork.members[321]  ""  ETV
vector 320  SimphonyDHTNetwork.members[322]  ""  ETV
vector 321  SimphonyDHTNetwork.members[324]  ""  ETV
vector 322  SimphonyDHTNetwork.members[327]  ""  ETV
vector 323  SimphonyDHTNetwork.members[329]  ""  ETV
vector 324  SimphonyDHTNetwork.members[320]  ""  ETV
vector 325  SimphonyDHTNetwork.members[330]  ""  ETV
vector 326  SimphonyDHTNetwork.members[325]  ""  ETV
vector 327  SimphonyDHTNetwork.members[333]  ""  ETV
vector 328  SimphonyDHTNetwork.members[308]  ""  ETV
vector 329  SimphonyDHTNetwork.members[326]  ""  ETV
vector 330  SimphonyDHTNetwork.members[334]  ""  ETV
vector 331  SimphonyDHTNetwork.members[331]  ""  ETV
vector 332  SimphonyDHTNetwork.members[335]  ""  ETV
vector 333  SimphonyDHTNetwork.members[341]  ""  ETV
vector 334  SimphonyDHTNetwork.members[342]  ""  ETV
vector 335  SimphonyDHTNetwork.members[328]  ""  ETV
vector 336  SimphonyDHTNetwork.members[340]  ""  ETV
vector 337  SimphonyDHTNetwork.members[332]  ""  ETV
vector 338  SimphonyDHTNetwork.members[343]  ""  ETV
vector 339  SimphonyDHTNetwork.members[346]  ""  ETV
vector 340  SimphonyDHTNetwork.members[344]  ""  ETV
vector 341  SimphonyDHTNetwork.members[339]  ""  ETV
vector 342  SimphonyDHTNetwork.members[345]  ""  ETV
vector 343  SimphonyDHTNetwork.members[318]  ""  ETV
vector 344  SimphonyDHTNetwork.members[348]  ""  ETV
vector 345  SimphonyDHTNetwork.members[337]  ""  ETV
vector 346  SimphonyDHTNetwork.members[350]  ""  ETV
vector 347  SimphonyDHTNetwork.members[347]  ""  ETV
vector 348  SimphonyDHTNetwork.members[336]  ""  ETV
vector 349  SimphonyDHTNetwork.members[338]  ""  ETV
vector 350  SimphonyDHTNetwork.members[349]  ""  ETV
vector 351  SimphonyDHTNetwork.members[353]  ""  ETV
vector 352  SimphonyDHTNetwork.members[356]  ""  ETV
vector 353  SimphonyDHTNetwork.members[354]  ""  ETV
vector 354  SimphonyDHTNetwork.members[355]  ""  ETV
vector 355  SimphonyDHTNetwork.members[351]  ""  ETV
vector 356  SimphonyDHTNetwork.members[352]  ""  ETV
vector 357  SimphonyDHTNetwork.members[360]  ""  ETV
vector 358  SimphonyDHTNetwork.members[363]  ""  ETV
vector 359  SimphonyDHTNetwork.members[361]  ""  ETV
vector 360  SimphonyDHTNetwork.members[357]  ""  ETV
vector 361  SimphonyDHTNetwork.members[358]  ""  ETV
vector 362  SimphonyDHTNetwork.members[362]  ""  ETV
vector 363  SimphonyDHTNetwork.members[364]  ""  ETV
vector 364  SimphonyDHTNetwork.members[366]  ""  ETV
vector 365  SimphonyDHTNetwork.members[367]  ""  ETV
vector 366  SimphonyDHTNetwork.members[359]  ""  ETV
vector 367  SimphonyDHTNetwork.members[368]  ""  ETV
vector 368  SimphonyDHTNetwork.members[371]  ""  ETV
vector 369  SimphonyDHTNetwork.members[372]  ""  ETV
vector 370  SimphonyDHTNetwork.members[374]  ""  ETV
vector 371  SimphonyDHTNetwork.members[365]  ""  ETV
vector 372  SimphonyDHTNetwork.members[369]  ""  ETV
vector 373  SimphonyDHTNetwork.members[370]  ""  ETV
vector 374  SimphonyDHTNetwork.members[378]  ""  ETV
vector 375  SimphonyDHTNetwork.members[373]  ""  ETV
vector 376  SimphonyDHTNetwork.members[379]  ""  ETV
vector 377  SimphonyDHTNetwork.members[377]  ""  ETV
vector 378  SimphonyDHTNetwork.members[380]  ""  ETV
vector 379  SimphonyDHTNetwork.members[382]  ""  ETV
vector 380  SimphonyDHTNetwork.members[381]  ""  ETV
vector 381  SimphonyDHTNetwork.members[383]  ""  ETV
vector 382  SimphonyDHTNetwork.members[375]  ""  ETV
vector 383  SimphonyDHTNetwork.members[376]  ""  ETV
vector 384  SimphonyDHTNetwork.members[388]  ""  ETV
vector 385  SimphonyDHTNetwork.members[385]  ""  ETV
vector 386  SimphonyDHTNetwork.members[387]  ""  ETV
vector 387  SimphonyDHTNetwork.members[389]  ""  ETV
vector 388  SimphonyDHTNetwork.members[392]  ""  ETV
vector 389  SimphonyDHTNetwork.members[384]  ""  ETV
vector 390  SimphonyDHTNetwork.members[393]  ""  ETV
vector 391  SimphonyDHTNetwork.members[397]  ""  ETV
vector 392  SimphonyDHTNetwork.members[394]  ""  ETV
vector 393  SimphonyDHTNetwork.members[396]  ""  ETV
vector 394  SimphonyDHTNetwork.members[390]  ""  ETV
vector 395  SimphonyDHTNetwork.members[395]  ""  ETV
vector 396  SimphonyDHTNetwork.members[399]  ""  ETV
vector 397  SimphonyDHTNetwork.members[403]  ""  ETV
vector 398  SimphonyDHTNetwork.members[400]  ""  ETV
0	21356 38551 2 269518 6941.575043003428 39243.571959774631 1239 0 1163 723906 564376740
1	59907 43610 3 279631 6941.675043003428 40595.068675877765 1395 1 1300 910733 790607111
2	103517 43023 6 280690 6941.875043003428 40670.22635931941 1377 0 1270 880672 746558668
3	146540 29885 7 275995 6941.875043003428 40140.724586749911 974 0 873 431467 252176151
4	176425 57218 8 281412 6941.875043003428 40677.72635931941 1825 0 1695 1557310 1765144400
5	233643 43446 9 281557 6941.875043003428 40678.467105903331 1392 0 1256 883599 743763579
6	277089 35077 10 280498 6941.875043003428 40667.82635931941 1129 0 1051 599980 423443596
7	312166 24262 11 275062 6941.875043003428 40123.078788396232 787 0 726 286254 138122438
8	336428 34398 12 275747 6941.875043003428 40134.424586749911 1112 0 1035 574830 396026712
9	370826 50939 22 275989 6942.175043003428 40140.724586749911 1637 0 1495 1235825 1236773661
10	421765 54065 27 278436 6942.475043003428 40229.680163101043 1683 0 1542 1300759 1337914581
11	475830 70542 28 281120 6942.475043003428 40675.92635931941 2167 0 1992 2158152 2861778174
12	546372 83098 29 280029 6942.475043003428 40661.32635931941 2545 0 2377 3030387 4805172093
13	629470 47583 30 279658 6942.475043003428 40595.368675877765 1480 0 1381 1026959 948684945
14	677053 79625 42 281604 6942.775043003428 40678.62635931941 2438 0 2292 2797064 4276326650
15	756678 89576 47 281169 6943.075043003428 40676.067105903331 2736 0 2532 3472595 5878546113
16	846254 46592 50 281565 6943.075043003428 40678.467105903331 1444 0 1339 971420 867256224
17	892846 55868 62 281600 6943.375043003428 40678.62635931941 1735 0 1622 1412953 1531234817
18	948714 74644 67 281439 6943.675043003428 40677.867105903331 2307 0 2146 2480506 3554268620
19	1023358 26996 70 281382 6943.675043003428 40677.567105903331 854 0 773 330730 170117456
20	1050354 37795 82 265544 6943.975043003428 39080.989906401594 1192 0 1108 667575 496628795
21	1088149 87819 87 281075 6944.275043003428 40675.167105903331 2691 0 2499 3356773 5591752531
22	1175968 42044 90 280391 6944.275043003428 40666.62635931941 1313 0 1213 804533 654464153
23	1218012 49714 102 281174 6944.575043003428 40676.067105903331 1555 0 1439 1126180 1084240370
24	1267726 41261 113 280215 6945.275043003428 40664.467105903331 1285 3 1200 766074 609461512
25	1308987 71275 116 279212 6945.375043003428 40586.068675877765 2195 0 2046 2250279 3067453683
26	1380262 136732 138 279117 6946.275043003428 40583.968675877765 4139 0 3820 7890589 20113081365
27	1516994 139558 139 280645 6946.275043003428 40669.62635931941 4223 0 3915 8245626 21502702124
28	1656552 56660 141 280974 6946.275043003428 40673.667105903331 1750 0 1596 1412683 1510101313
29	1713212 51851 142 281118 6946.275043003428 40675.92635931941 1605 0 1478 1197689 1186114025
30	1765063 138137 152 280413 6946.575043003428 40666.92635931941 4181 0 3797 7871965 19836662601
31	1903200 37912 157 281566 6946.875043003428 40678.467105903331 1200 0 1120 671353 499572783
32	1941112 41082 166 280028 6947.175043003428 40661.22635931941 1289 0 1202 771878 617545742
33	1982194 28463 180 281168 6947.775043003428 40676.067105903331 900 0 829 369791 203121969
34	2010657 19477 194 281164 6948.375043003428 40676.067105903331 616 0 571 176863 67761803
35	2030134 30409 199 268029 6948.675043003428 39224.235557196612 964 0 897 433707 259678417
36	2060543 20341 200 280865 6948.675043003428 40672.267105903331 637 0 581 185013 71446655
37	2080884 24338 201 277313 6948.675043003428 40194.931063799231 757 0 701 265341 123804249
38	2105222 35704 208 279470 6948.975043003428 40591.168675877765 1113 0 1029 580083 399700929
39	2140926 43268 213 268647 6949.275043003428 39231.835557196612 1351 0 1260 853786 720197886
40	2184194 29670 214 280030 6949.275043003428 40661.32635931941 922 0 857 395828 226710734
41	2213864 26868 215 277404 6949.275043003428 40214.180163101043 837 0 769 325674 167487866
42	2240732 32266 216 281158 6949.275043003428 40676.067105903331 1009 0 931 467713 289522705
43	2272998 37158 228 268646 6949.575043003428 39231.735557196612 1165 0 1092 639643 466937527
44	2310156 58899 233 275386 6949.875043003428 40127.878788396232 1816 0 1681 1538097 1734558361
45	2369055 37698 234 281040 6949.875043003428 40674.72635931941 1173 0 1084 646945 472685049
46	2406753 37528 236 275805 6949.875043003428 40135.924586749911 1165 0 1087 636426 461768744
47	2444281 33186 248 278512 6950.175043003428 40231.480163101043 1039 0 947 495739 313547343
48	2477467 33398 253 279592 6950.475043003428 40594.168675877765 1049 0 973 514274 334618216
49	2510865 28213 256 280997 6950.475043003428 40674.22635931941 881 0 815 361373 197024761
50	2539078 29223 268 281352 6950.775043003428 40677.42635931941 917 0 851 389893 220798347
51	2568301 55723 273 281445 6951.075043003428 40677.867105903331 1716 0 1613 1376681 1475756365
52	2624024 24856 276 278796 6951.075043003428 40237.380163101043 778 0 718 280641 134709305
53	2648880 27559 288 281015 6951.375043003428 40674.32635931941 860 0 793 344411 183076457
54	2676439 36191 293 279467 6951.675043003428 40591.168675877765 1140 0 1057 606826 428936830
55	2712630 32324 296 281612 6951.675043003428 40678.62635931941 1004 0 937 474239 297689389
56	2744954 41014 308 280354 6951.975043003428 40666.02635931941 1272 0 1186 751818 592166574
57	2785968 36705 386 279660 7228.676272714578 40595.368675877765 1138 0 1061 603247 426555359
58	2822673 18659 387 281274 7228.776272714578 40676.967105903331 581 0 531 154930 55118442
59	2841332 23062 388 281250 7228.876272714578 40676.82635931941 719 1 657 235017 102697529
60	2864394 24173 391 281142 7229.076272714578 40676.067105903331 752 0 703 265051 124607645
61	2888567 25718 392 280646 7229.076272714578 40669.62635931941 803 0 743 301164 149951590
62	2914285 30695 401 275136 7229.376272714578 40123.478788396232 953 0 887 421544 248380262
63	2944980 28992 428 278307 7230.276272714578 40227.280163101043 907 0 834 385347 216585803
64	2973972 28813 686 280300 7274.979748035342 40665.42635931941 904 0 840 381369 213104565
65	3002785 30635 1171 279652 7409.644011596745 40595.368675877765 955 0 873 417260 242847924
66	3033420 17979 1510 272706 7421.692033205986 39958.603383482706 565 0 513 146623 50360819
67	3051399 60102 2108 279688 7596.722355551949 40652.12635931941 1836 0 1699 1554404 1754989888
68	3111501 36971 2449 281610 7692.62497387217 40678.62635931941 1146 0 1058 614464 436383602
69	3148472 31426 2964 279647 7892.63121324655 40595.368675877765 986 0 903 448256 270151580
70	3179898 33989 3327 280633 7905.85104476946 40669.567105903331 1053 0 975 512626 332873768
71	3213887 30775 3336 281151 7906.13121324655 40676.067105903331 963 0 882 422496 248196502
72	3244662 44171 3370 281144 7906.73121324655 40676.067105903331 1365 0 1283 874063 747845091
73	3288833 80565 4074 268218 8009.092439276949 39227.971959774631 2459 0 2279 2810441 4290289093
74	3369398 49865 4406 280703 8103.432398303119 40670.467105903331 1531 0 1428 1089861 1037345563
75	3419263 67167 4890 280890 8248.431962294772 40672.32635931941 2050 0 1884 1929012 2423864880
76	3486430 13638 5435 279607 8266.454826626373 40594.468675877765 427 0 380 81610 20710896
77	3500068 29822 5924 280076 8555.929073866165 40662.667105903331 930 0 847 394472 223309268
78	3529890 111991 6159 281536 8688.231968544454 40678.167105903331 3385 0 3137 5324271 11179553145
79	3641881 15099 6488 281166 8793.8094883642 40676.067105903331 472 0 431 101952 29379686
80	3656980 20201 7007 279408 8895.813604254583 40589.968675877765 629 0 580 181756 70186984
81	3677181 29334 7569 281209 8925.355942421259 40676.52635931941 914 0 828 376643 207285819
82	3706515 11088 8219 281141 8960.464438745068 40676.067105903331 348 0 313 54798 11448464
83	3717603 26759 8872 281145 9079.185034104232 40676.067105903331 836 0 759 317284 160430488
84	3744362 26325 9298 280499 9122.218447309326 40667.82635931941 817 0 748 305338 152639916
85	3770687 38385 9818 280821 9158.324084674807 40671.667105903331 1189 0 1082 637614 459831660
86	3809072 28087 10462 281154 9246.09792085177 40676.067105903331 872 0 807 349966 187670680
87	3837159 32484 11201 275990 9540.626776657247 40140.724586749911 1009 0 915 459129 279910275
88	3869643 53827 11901 278648 9637.191885297794 40234.380163101043 1649 0 1505 1236174 1239675174
89	3923470 58926 12319 279703 9790.516621055419 40652.72635931941 1796 0 1636 1487323 1635190575
90	3982396 39701 12657 272932 9868.119218273811 39964.603383482706 1221 0 1119 685632 513893160
91	4022097 50276 13195 281603 9924.264593536391 40678.62635931941 1543 0 1434 1106646 1060444354