version 2
run allAtOnce-1-20130122-16:51:21-9540
attr configname allAtOnce
attr datetime 20130122-16:51:21
attr experiment allAtOnce
attr inifile omnetpp.ini
attr iterationvars "$0=128, $1=100"
attr iterationvars2 "$0=128, $1=100, $repetition=1"
attr measurement "$0=128, $1=100"
attr network SimphonyDHTNetwork
attr processid 9540
attr repetition 1
attr replication #1
attr resultdir results
attr runnumber 1
attr seedset 1

vector 0  SimphonyDHTNetwork.members[27]  ""  ETV
vector 1  SimphonyDHTNetwork.members[28]  ""  ETV
vector 2  SimphonyDHTNetwork.members[29]  ""  ETV
vector 3  SimphonyDHTNetwork.members[18]  ""  ETV
vector 4  SimphonyDHTNetwork.members[19]  ""  ETV
vector 5  SimphonyDHTNetwork.members[20]  ""  ETV
vector 6  SimphonyDHTNetwork.members[36]  ""  ETV
vector 7  SimphonyDHTNetwork.members[37]  ""  ETV
vector 8  SimphonyDHTNetwork.members[38]  ""  ETV
vector 9  SimphonyDHTNetwork.members[17]  ""  ETV
vector 10  SimphonyDHTNetwork.members[8]  ""  ETV
vector 11  SimphonyDHTNetwork.members[9]  ""  ETV
vector 12  SimphonyDHTNetwork.members[10]  ""  ETV
vector 13  SimphonyDHTNetwork.members[26]  ""  ETV
vector 14  SimphonyDHTNetwork.members[7]  ""  ETV
vector 15  SimphonyDHTNetwork.members[76]  ""  ETV
vector 16  SimphonyDHTNetwork.members[6]  ""  ETV
vector 17  SimphonyDHTNetwork.members[15]  ""  ETV
vector 18  SimphonyDHTNetwork.members[16]  ""  ETV
vector 19  SimphonyDHTNetwork.members[5]  ""  ETV
vector 20  SimphonyDHTNetwork.members[14]  ""  ETV
vector 21  SimphonyDHTNetwork.members[4]  ""  ETV
vector 22  SimphonyDHTNetwork.members[13]  ""  ETV
vector 23  SimphonyDHTNetwork.members[3]  ""  ETV
vector 24  SimphonyDHTNetwork.members[12]  ""  ETV
vector 25  SimphonyDHTNetwork.members[2]  ""  ETV
vector 26  SimphonyDHTNetwork.members[11]  ""  ETV
vector 27  SimphonyDHTNetwork.members[1]  ""  ETV
vector 28  SimphonyDHTNetwork.members[0]  ""  ETV
vector 29  SimphonyDHTNetwork.members[63]  ""  ETV
vector 30  SimphonyDHTNetwork.members[62]  ""  ETV
vector 31  SimphonyDHTNetwork.members[53]  ""  ETV
vector 32  SimphonyDHTNetwork.members[54]  ""  ETV
vector 33  SimphonyDHTNetwork.members[55]  ""  ETV
vector 34  SimphonyDHTNetwork.members[52]  ""  ETV
vector 35  SimphonyDHTNetwork.members[43]  ""  ETV
vector 36  SimphonyDHTNetwork.members[44]  ""  ETV
vector 37  SimphonyDHTNetwork.members[45]  ""  ETV
vector 38  SimphonyDHTNetwork.members[61]  ""  ETV
vector 39  SimphonyDHTNetwork.members[42]  ""  ETV
vector 40  SimphonyDHTNetwork.members[33]  ""  ETV
vector 41  SimphonyDHTNetwork.members[34]  ""  ETV
vector 42  SimphonyDHTNetwork.members[35]  ""  ETV
vector 43  SimphonyDHTNetwork.members[51]  ""  ETV
vector 44  SimphonyDHTNetwork.members[41]  ""  ETV
vector 45  SimphonyDHTNetwork.members[32]  ""  ETV
vector 46  SimphonyDHTNetwork.members[50]  ""  ETV
vector 47  SimphonyDHTNetwork.members[40]  ""  ETV
vector 48  SimphonyDHTNetwork.members[31]  ""  ETV
vector 49  SimphonyDHTNetwork.members[49]  ""  ETV
vector 50  SimphonyDHTNetwork.members[39]  ""  ETV
vector 51  SimphonyDHTNetwork.members[30]  ""  ETV
vector 52  SimphonyDHTNetwork.members[48]  ""  ETV
vector 53  SimphonyDHTNetwork.members[47]  ""  ETV
vector 54  SimphonyDHTNetwork.members[100]  ""  ETV
vector 55  SimphonyDHTNetwork.members[46]  ""  ETV
vector 56  SimphonyDHTNetwork.members[25]  ""  ETV
vector 57  SimphonyDHTNetwork.members[24]  ""  ETV
vector 58  SimphonyDHTNetwork.members[23]  ""  ETV
vector 59  SimphonyDHTNetwork.members[22]  ""  ETV
vector 60  SimphonyDHTNetwork.members[21]  ""  ETV
vector 61  SimphonyDHTNetwork.members[77]  ""  ETV
vector 62  SimphonyDHTNetwork.members[60]  ""  ETV
vector 63  SimphonyDHTNetwork.members[59]  ""  ETV
vector 64  SimphonyDHTNetwork.members[58]  ""  ETV
vector 65  SimphonyDHTNetwork.members[110]  ""  ETV
vector 66  SimphonyDHTNetwork.members[89]  ""  ETV
vector 67  SimphonyDHTNetwork.members[101]  ""  ETV
vector 68  SimphonyDHTNetwork.members[93]  ""  ETV
vector 69  SimphonyDHTNetwork.members[88]  ""  ETV
vector 70  SimphonyDHTNetwork.members[71]  ""  ETV
vector 71  SimphonyDHTNetwork.members[97]  ""  ETV
vector 72  SimphonyDHTNetwork.members[120]  ""  ETV
vector 73  SimphonyDHTNetwork.members[57]  ""  ETV
vector 74  SimphonyDHTNetwork.members[56]  ""  ETV
vector 75  SimphonyDHTNetwork.members[98]  ""  ETV
vector 76  SimphonyDHTNetwork.members[67]  ""  ETV
vector 77  SimphonyDHTNetwork.members[114]  ""  ETV
vector 78  SimphonyDHTNetwork.members[87]  ""  ETV
vector 79  SimphonyDHTNetwork.members[69]  ""  ETV
vector 80  SimphonyDHTNetwork.members[104]  ""  ETV
vector 81  SimphonyDHTNetwork.members[70]  ""  ETV
vector 82  SimphonyDHTNetwork.members[84]  ""  ETV
vector 83  SimphonyDHTNetwork.members[83]  ""  ETV
vector 84  SimphonyDHTNetwork.members[119]  ""  ETV
vector 85  SimphonyDHTNetwork.members[96]  ""  ETV
vector 86  SimphonyDHTNetwork.members[94]  ""  ETV
vector 87  SimphonyDHTNetwork.members[106]  ""  ETV
vector 88  SimphonyDHTNetwork.members[65]  ""  ETV
vector 89  SimphonyDHTNetwork.members[117]  ""  ETV
vector 90  SimphonyDHTNetwork.members[107]  ""  ETV
vector 91  SimphonyDHTNetwork.members[75]  ""  ETV
vector 92  SimphonyDHTNetwork.members[85]  ""  ETV
vector 93  SimphonyDHTNetwork.members[66]  ""  ETV
vector 94  SimphonyDHTNetwork.members[90]  ""  ETV
vector 95  SimphonyDHTNetwork.members[91]  ""  ETV
vector 96  SimphonyDHTNetwork.members[122]  ""  ETV
vector 97  SimphonyDHTNetwork.members[126]  ""  ETV
vector 98  SimphonyDHTNetwork.members[108]  ""  ETV
vector 99  SimphonyDHTNetwork.members[99]  ""  ETV
vector 100  SimphonyDHTNetwork.members[79]  ""  ETV
vector 101  SimphonyDHTNetwork.members[68]  ""  ETV
vector 102  SimphonyDHTNetwork.members[72]  ""  ETV
vector 103  SimphonyDHTNetwork.members[125]  ""  ETV
vector 104  SimphonyDHTNetwork.members[81]  ""  ETV
vector 105  SimphonyDHTNetwork.members[121]  ""  ETV
vector 106  SimphonyDHTNetwork.members[111]  ""  ETV
vector 107  SimphonyDHTNetwork.members[112]  ""  ETV
vector 108  SimphonyDHTNetwork.members[109]  ""  ETV
vector 109  SimphonyDHTNetwork.members[127]  ""  ETV
vector 110  SimphonyDHTNetwork.members[116]  ""  ETV
vector 111  SimphonyDHTNetwork.members[113]  ""  ETV
vector 112  SimphonyDHTNetwork.members[78]  ""  ETV
vector 113  SimphonyDHTNetwork.members[73]  ""  ETV
vector 114  SimphonyDHTNetwork.members[82]  ""  ETV
vector 115  SimphonyDHTNetwork.members[102]  ""  ETV
vector 116  SimphonyDHTNetwork.members[74]  ""  ETV
vector 117  SimphonyDHTNetwork.members[86]  ""  ETV
vector 118  SimphonyDHTNetwork.members[118]  ""  ETV
vector 119  SimphonyDHTNetwork.members[124]  ""  ETV
vector 120  SimphonyDHTNetwork.members[64]  ""  ETV
vector 121  SimphonyDHTNetwork.members[92]  ""  ETV
vector 122  SimphonyDHTNetwork.members[95]  ""  ETV
vector 123  SimphonyDHTNetwork.members[105]  ""  ETV
vector 124  SimphonyDHTNetwork.members[103]  ""  ETV
vector 125  SimphonyDHTNetwork.members[115]  ""  ETV
vector 126  SimphonyDHTNetwork.members[80]  ""  ETV
vector 127  SimphonyDHTNetwork.members[123]  ""  ETV
0	2	142.223350595457	0
0	5	142.523350595457	1
0	31	143.123350595457	2
0	476	198.525246062671	3
0	617	202.725246062671	4
0	674	205.125246062671	5
0	801	210.625246062671	6
0	899	214.025246062671	7
0	1067	275.996640483444	8
0	1080	276.196640483444	9
0	1082	276.396640483444	10
0	1083	276.496640483444	10
0	1092	276.696640483444	18
0	1093	276.696640483444	18
0	1094	276.696640483444	18
0	1095	276.696640483444	18
0	1096	276.696640483444	18
0	1097	276.696640483444	18
0	1098	276.696640483444	18
0	1099	276.696640483444	18
0	1112	277.196640483444	19
0	1348	286.996640483444	20
0	1365	287.796640483444	21
0	1378	287.996640483444	22
0	1380	288.196640483444	23
0	1381	288.296640483444	23
0	1390	288.496640483444	31
0	1391	288.496640483444	31
0	1392	288.496640483444	31
0	1393	288.496640483444	31
0	1394	288.496640483444	31
0	1395	288.496640483444	31
0	1396	288.496640483444	31
0	1397	288.496640483444	31
0	1403	288.996640483444	32
0	1423	289.696640483444	33
0	1440	290.496640483444	34
0	1453	290.696640483444	35
0	1455	290.896640483444	36
0	1456	290.996640483444	36
0	1465	291.196640483444	44
0	1466	291.196640483444	44
0	1467	291.196640483444	44
0	1468	291.196640483444	44
0	1469	291.196640483444	44
0	1470	291.196640483444	44
0	1471	291.196640483444	44
0	1472	291.196640483444	44
0	1485	291.696640483444	45
0	1573	295.896640483444	46
0	2078	626.513940340951	47
0	2081	626.813940340951	48
0	2097	627.013940340951	49
0	2099	627.213940340951	50
0	2100	627.313940340951	50
0	2401	691.35178752713	51
0	2459	693.55178752713	52
0	2595	698.95178752713	53
0	3007	950.894993687504	54
0	3619	970.667576515062	55
0	3661	971.267576515062	56
0	3716	972.067576515062	57
0	3732	972.294993687504	58
0	3774	972.894993687504	59
0	3823	973.694993687504	60
0	3999	976.967576515062	61
0	4021	977.567576515062	62
0	4054	978.367576515062	63
0	4970	1118.896671369968	64
0	4991	1119.496671369968	65
0	5027	1247.494413437908	66
0	5038	1247.694413437908	67
0	5040	1247.894413437908	68
0	5041	1247.994413437908	68
0	5050	1248.194413437908	76
0	5051	1248.194413437908	76
0	5052	1248.194413437908	76
0	5053	1248.194413437908	76
0	5054	1248.194413437908	76
0	5055	1248.194413437908	76
0	5056	1248.194413437908	76
0	5057	1248.194413437908	76
0	5063	1248.694413437908	77
0	5083	1249.394413437908	78
0	5563	1313.688133903401	79
0	5708	1319.188133903401	80
0	5920	1383.719569044689	81
0	5933	1383.919569044689	82
0	5935	1384.119569044689	83
0	5936	1384.219569044689	83
0	5945	1384.419569044689	91
0	5946	1384.419569044689	91
0	5947	1384.419569044689	91
0	5948	1384.419569044689	91
0	5949	1384.419569044689	91
0	5950	1384.419569044689	91
0	5951	1384.419569044689	91
0	5952	1384.419569044689	91
0	5957	1384.919569044689	92
0	5995	1386.419569044689	93
0	6008	1386.619569044689	94
0	6010	1386.819569044689	95
0	6011	1386.919569044689	95
0	6020	1387.119569044689	103
0	6021	1387.119569044689	103
0	6022	1387.119569044689	103
0	6023	1387.119569044689	103
0	6024	1387.119569044689	103
0	6025	1387.119569044689	103
0	6026	1387.119569044689	103
0	6027	1387.119569044689	103
0	6040	1387.619569044689	104
0	6121	1391.119569044689	105
0	6161	1392.619569044689	106
0	6174	1392.819569044689	107
0	6176	1393.019569044689	108
0	6177	1393.119569044689	108
0	6186	1393.319569044689	116
0	6187	1393.319569044689	116
0	6188	1393.319569044689	116
0	6189	1393.319569044689	116
0	6190	1393.319569044689	116
0	6191	1393.319569044689	116
0	6192	1393.319569044689	116
0	6193	1393.319569044689	116
0	6206	1393.819569044689	117
0	6219	1394.519569044689	118
0	6267	1498.190544068664	119
0	6316	1499.790544068664	120
0	6408	1503.190544068664	121
0	6599	1509.490544068664	122
0	7405	2401.08171531051	123
0	7418	2401.28171531051	124
0	7420	2401.48171531051	125
0	7421	2401.58171531051	125
0	7430	2401.78171531051	133
0	7431	2401.78171531051	133
0	7432	2401.78171531051	133
0	7433	2401.78171531051	133
0	7434	2401.78171531051	133
0	7435	2401.78171531051	133
0	7436	2401.78171531051	133
0	7437	2401.78171531051	133
0	7450	2402.28171531051	134
0	7579	2406.58171531051	135
0	7593	2497.14628208299	136
0	8122	2799.72776102275	137
0	8144	2800.32776102275	138
0	8177	2801.12776102275	139
0	8580	2983.6324899311	140
0	8828	2991.4324899311	141
0	9259	3158.41236294704	142
0	9280	3159.01236294704	143
0	9576	3292.21031279102	144
0	9955	3304.33968937844	145
0	10718	3506.606464004382	146
0	10734	3507.206464004382	147
0	10863	3511.106464004382	148
0	10915	3512.506464004382	149
0	11015	3515.906464004382	150
0	11031	3516.506464004382	151
0	11097	3568.86121437019	153
0	11098	3568.96121437019	153
0	11107	3569.16121437019	161
0	11108	3569.16121437019	161
0	11109	3569.16121437019	161
0	11110	3569.16121437019	161
0	11111	3569.16121437019	161
0	11112	3569.16121437019	161
0	11113	3569.16121437019	161
0	11114	3569.16121437019	161
0	11127	3569.66121437019	162
0	11206	3572.16121437019	163
0	11463	3838.995135572236	163
0	11485	3839.595135572236	164
0	11850	4047.183173861268	165
0	11881	4047.983173861268	166
0	11933	4049.383173861268	167
0	12055	4053.483173861268	168
0	12067	4053.683173861268	169
0	12069	4053.883173861268	170
0	12070	4053.983173861268	170
0	12079	4054.183173861268	178
0	12080	4054.183173861268	178
0	12081	4054.183173861268	178
0	12082	4054.183173861268	178
0	12083	4054.183173861268	178
0	12084	4054.183173861268	178
0	12085	4054.183173861268	178
0	12086	4054.183173861268	178
0	12100	4054.683173861268	179
0	12163	4056.483173861268	180
0	12302	5085.767263270138	181
0	12324	5086.367263270138	182
0	12358	5087.167263270138	183
0	12761	5111.72615111917	184
0	12773	5111.92615111917	185
0	12775	5112.12615111917	186
0	12776	5112.22615111917	186
0	12785	5112.42615111917	194
0	12786	5112.42615111917	194
0	12787	5112.42615111917	194
0	12788	5112.42615111917	194
0	12789	5112.42615111917	194
0	12790	5112.42615111917	194
0	12791	5112.42615111917	194
0	12792	5112.42615111917	194
0	12806	5112.92615111917	195
0	12890	5115.62615111917	196
0	13905	6578.131710624676	197
0	13927	6578.731710624676	198
0	13961	6579.531710624676	199
0	14169	6791.616430489428	200
0	14221	6793.016430489428	201
0	14448	6800.516430489428	202
0	14470	6801.116430489428	203
0	14504	6801.916430489428	204
0	15041	7381.13003905875	205
0	15063	7381.73003905875	206
0	15097	7382.53003905875	207
0	15765	7826.36705274336	208
0	16271	8127.570477341583	209
0	16325	8128.170477341583	210
0	16343	8128.370477341583	211
0	16372	8128.570477341583	212
0	16373	8128.670477341583	212
0	16414	8128.870477341583	220
0	16415	8128.870477341583	220
0	16416	8128.870477341583	220
0	16417	8128.870477341583	220
0	16418	8128.870477341583	220
0	16419	8128.870477341583	220
0	16420	8128.870477341583	220
0	16421	8128.870477341583	220
0	16457	8129.370477341583	221
0	16970	8468.699738746877	222
0	16982	8468.899738746877	223
0	16984	8469.099738746877	224
0	16985	8469.199738746877	224
0	16994	8469.399738746877	232
0	16995	8469.399738746877	232
0	16996	8469.399738746877	232
0	16997	8469.399738746877	232
0	16998	8469.399738746877	232
0	16999	8469.399738746877	232
0	17000	8469.399738746877	232
0	17001	8469.399738746877	232
0	17015	8469.899738746877	233
0	17099	8472.599738746877	234
0	17488	8478.799738746877	235
0	17491	8479.099738746877	236
0	17507	8479.299738746877	237
0	17509	8479.499738746877	238
0	17510	8479.599738746877	238
0	17519	8479.799738746877	246
0	17520	8479.799738746877	246
0	17521	8479.799738746877	246
0	17522	8479.799738746877	246
0	17523	8479.799738746877	246
0	17524	8479.799738746877	246
0	17525	8479.799738746877	246
0	17526	8479.799738746877	246
0	17532	8480.299738746877	247
0	17573	8481.499738746877	248
0	17620	8561.158978510758	249
0	17672	8562.558978510758	250
0	18280	8868.585758101434	251
0	18283	8868.885758101434	252
0	18310	8869.485758101434	253
0	18661	9305.91960595157	254
0	18697	9306.51960595157	255
0	18855	9308.81960595157	256
0	18877	9309.11960595157	257
0	20180	9656.390085719088	258
0	20201	9656.690085719088	259
0	20247	9657.290085719088	260
0	20303	9658.090085719088	261
0	20832	9663.86435333894	262
0	20850	9664.16435333894	263
0	20857	9664.190085719088	264
0	20866	9664.36435333894	265
0	20871	9664.490085719088	266
0	20878	9664.56435333894	267
0	20886	9664.66435333894	267
0	20897	9664.86435333894	274
0	20898	9664.86435333894	274
0	20899	9664.86435333894	274
0	20900	9664.86435333894	274
0	20901	9664.86435333894	274
0	20902	9664.86435333894	274
0	20903	9664.86435333894	274
0	20914	9665.090085719088	275
0	20929	9665.36435333894	276
0	21018	9666.56435333894	277
0	21283	9956.689222408064	278
0	21829	10419.997165837948	279
0	21917	10422.497165837948	280
0	22052	10426.597165837948	281
0	22106	10428.597165837948	282
0	22356	10856.242627483376	283
0	22361	10856.542627483376	284
0	22386	10857.142627483376	285
0	22511	10956.68704111864	286
0	22953	11317.280374289794	287
0	23350	11323.980374289794	288
0	23963	11332.780374289794	289
0	24001	11333.380374289794	290
0	24040	11445.665217485988	291
0	24045	11445.965217485988	292
0	24070	11446.565217485988	293
0	24505	11699.459787581628	294
0	24510	11699.759787581628	295
0	24524	11699.959787581628	296
0	24526	11700.159787581628	297
0	24527	11700.259787581628	297
0	24534	11700.459787581628	303
0	24535	11700.459787581628	303
0	24536	11700.459787581628	303
0	24537	11700.459787581628	303
0	24538	11700.459787581628	303
0	24539	11700.459787581628	303
0	24545	11700.959787581628	304
0	24612	11702.759787581628	305
0	25366	13508.277967490476	306
0	25388	13508.877967490476	307
0	26042	14318.395238098966	308
0	26047	14318.695238098966	309
0	26072	14319.295238098966	310
0	26302	14327.395238098966	311
0	26307	14327.695238098966	312
0	26321	14327.895238098966	313
0	26323	14328.095238098966	314
0	26324	14328.195238098966	314
0	26331	14328.395238098966	320
0	26332	14328.395238098966	320
0	26333	14328.395238098966	320
0	26334	14328.395238098966	320
0	26335	14328.395238098966	320
0	26336	14328.395238098966	320
0	26342	14328.895238098966	321
0	26426	14331.195238098966	322
0	26652	14819.784234322624	323
0	26657	14820.084234322624	324
0	26682	14820.684234322624	325
0	27179	20593.882995942808	326
0	27201	20594.482995942808	327
0	27365	20600.082995942808	328
0	28794	22444.830879209632	329
0	28816	22445.430879209632	330
0	29972	25867.752105094656	331
0	30544	25885.352105094656	332
0	30549	25885.652105094656	333
0	30563	25885.852105094656	334
0	30565	25886.052105094656	335
0	30566	25886.152105094656	335
0	30617	36376.747266993792	336
0	30622	36377.047266993792	337
0	30647	36377.647266993792	338
0	31231	36432.416413663272	339
0	31253	36433.016413663272	340
1	3	142.323350595457	1
1	4	142.423350595457	1
1	13	142.623350595457	9
1	14	142.623350595457	9
1	15	142.623350595457	9
1	16	142.623350595457	9
1	17	142.623350595457	9
1	18	142.623350595457	9
1	19	142.623350595457	9
1	20	142.623350595457	9
1	32	143.123350595457	10
1	46	143.823350595457	11
1	597	202.125246062671	11
1	618	202.725246062671	12
1	1068	275.996640483444	13
1	1085	276.596640483444	14
1	1366	287.796640483444	15
1	1383	288.396640483444	16
1	1441	290.496640483444	17
1	1458	291.096640483444	18
1	2058	625.913940340951	19
1	2061	626.213940340951	20
1	2077	626.413940340951	21
1	2079	626.613940340951	22
1	2080	626.713940340951	22
1	2089	626.913940340951	30
1	2090	626.913940340951	30
1	2091	626.913940340951	30
1	2092	626.913940340951	30
1	2093	626.913940340951	30
1	2094	626.913940340951	30
1	2095	626.913940340951	30
1	2096	626.913940340951	30
1	2101	627.413940340951	31
1	2371	690.55178752713	32
1	2402	691.35178752713	33
1	3554	969.767576515062	34
1	3574	970.067576515062	35
1	3620	970.667576515062	36
1	3662	971.267576515062	37
1	3692	971.694993687504	38
1	3733	972.294993687504	39
1	3775	972.894993687504	40
1	3977	976.367576515062	41
1	4000	976.967576515062	42
1	4022	977.567576515062	43
1	4331	987.867576515062	44
1	4940	1118.096671369968	45
1	4971	1118.896671369968	46
1	4992	1119.496671369968	47
1	5028	1247.494413437908	48
1	5043	1248.094413437908	49
1	5921	1383.719569044689	50
1	5938	1384.319569044689	51
1	5996	1386.419569044689	52
1	6013	1387.019569044689	53
1	6162	1392.619569044689	54
1	6179	1393.219569044689	55
1	6268	1498.190544068664	56
1	6988	2211.46192868072	57
1	7406	2401.08171531051	58
1	7423	2401.68171531051	59
1	8102	2799.12776102275	60
1	8123	2799.72776102275	61
1	8145	2800.32776102275	62
1	9229	3157.61236294704	63
1	9260	3158.41236294704	64
1	9281	3159.01236294704	65
1	9577	3292.21031279102	66
1	9846	3302.728249250733	67
1	9898	3303.43968937844	68
1	9904	3303.73968937844	69
1	9956	3304.33968937844	70
1	10719	3506.606464004382	71
1	10864	3511.106464004382	72
1	11016	3515.906464004382	73
1	11100	3569.06121437019	74
1	11443	3838.395135572236	75
1	11464	3838.995135572236	76
1	11486	3839.595135572236	77
1	11851	4047.183173861268	78
1	11882	4047.983173861268	79
1	12056	4053.483173861268	80
1	12072	4054.083173861268	81
1	12282	5085.167263270138	82
1	12303	5085.767263270138	83
1	12325	5086.367263270138	84
1	12704	5109.62615111917	85
1	12762	5111.72615111917	86
1	12778	5112.32615111917	87
1	13885	6577.531710624676	88
1	13906	6578.131710624676	89
1	13928	6578.731710624676	90
1	14170	6791.616430489428	91
1	14428	6799.916430489428	92
1	14449	6800.516430489428	93
1	14471	6801.116430489428	94
1	15013	7380.23003905875	95
1	15016	7380.53003905875	96
1	15042	7381.13003905875	97
1	15064	7381.73003905875	98
1	15766	7826.36705274336	99
1	16059	8124.070477341583	100
1	16272	8127.570477341583	101
1	16308	8127.870477341583	102
1	16326	8128.170477341583	103
1	16388	8128.770477341583	104
1	16739	8132.670477341583	105
1	16971	8468.699738746877	106
1	16987	8469.299738746877	107
1	17468	8478.199738746877	108
1	17471	8478.499738746877	109
1	17487	8478.699738746877	110
1	17489	8478.899738746877	111
1	17490	8478.999738746877	111
1	17499	8479.199738746877	119
1	17500	8479.199738746877	119
1	17501	8479.199738746877	119
1	17502	8479.199738746877	119
1	17503	8479.199738746877	119
1	17504	8479.199738746877	119
1	17505	8479.199738746877	119
1	17506	8479.199738746877	119
1	17512	8479.699738746877	120
1	17574	8481.599738746877	121
1	17621	8561.158978510758	122
1	18267	8868.285758101434	123
1	18279	8868.485758101434	124
1	18281	8868.685758101434	125
1	18282	8868.785758101434	125
1	18291	8868.985758101434	133
1	18292	8868.985758101434	133
1	18293	8868.985758101434	133
1	18294	8868.985758101434	133
1	18295	8868.985758101434	133
1	18296	8868.985758101434	133
1	18297	8868.985758101434	133
1	18298	8868.985758101434	133
1	18311	8869.485758101434	134
1	18354	8870.985758101434	135
1	18662	9305.91960595157	136
1	18856	9308.81960595157	137
1	18867	9309.01960595157	138
1	18878	9309.21960595157	139
1	18879	9309.31960595157	139
1	18928	9309.71960595157	140
1	19175	9349.890341551664	141
1	19301	9353.490341551664	142
1	19478	9359.590341551664	143
1	20155	9656.090085719088	144
1	20177	9656.290085719088	145
1	20191	9656.490085719088	146
1	20192	9656.590085719088	146
1	20200	9656.590085719088	154
1	20211	9656.790085719088	154
1	20212	9656.790085719088	154
1	20213	9656.790085719088	154
1	20214	9656.790085719088	154
1	20215	9656.790085719088	154
1	20216	9656.790085719088	154
1	20217	9656.790085719088	154
1	20248	9657.290085719088	155
1	20696	9661.86435333894	156
1	20747	9662.390085719088	157
1	20821	9663.76435333894	158
1	20826	9663.76435333894	159
1	20833	9663.890085719088	160
1	20839	9663.96435333894	161
1	20846	9664.06435333894	161
1	20848	9664.06435333894	169
1	20849	9664.090085719088	169
1	20858	9664.26435333894	170
1	20859	9664.26435333894	170
1	20860	9664.26435333894	170
1	20861	9664.26435333894	170
1	20862	9664.26435333894	170
1	20863	9664.26435333894	170
1	20864	9664.26435333894	170
1	20865	9664.290085719088	171
1	20867	9664.390085719088	171
1	20869	9664.390085719088	179
1	20879	9664.590085719088	179
1	20880	9664.590085719088	179
1	20881	9664.590085719088	179
1	20882	9664.590085719088	179
1	20883	9664.590085719088	179
1	20884	9664.590085719088	179
1	20885	9664.590085719088	179
1	20891	9664.76435333894	180
1	20915	9665.090085719088	181
1	21019	9666.66435333894	182
1	21029	9666.890085719088	183
1	21736	10417.697165837948	184
1	21793	10418.997165837948	185
1	21830	10419.997165837948	186
1	22343	10855.942627483376	187
1	22355	10856.142627483376	188
1	22357	10856.342627483376	189
1	22358	10856.442627483376	189
1	22360	10856.442627483376	197
1	22368	10856.642627483376	197
1	22369	10856.642627483376	197
1	22370	10856.642627483376	197
1	22371	10856.642627483376	197
1	22372	10856.642627483376	197
1	22373	10856.642627483376	197
1	22374	10856.642627483376	197
1	22387	10857.142627483376	198
1	22430	10858.642627483376	199
1	23310	11323.380374289794	200
1	23320	11323.680374289794	201
1	23346	11323.880374289794	202
1	23351	11324.080374289794	203
1	23352	11324.180374289794	203
1	23929	11332.180374289794	204
1	23964	11332.780374289794	205
1	24002	11333.380374289794	206
1	24041	11445.765217485988	208
1	24042	11445.865217485988	208
1	24044	11445.865217485988	216
1	24052	11446.065217485988	216
1	24053	11446.065217485988	216
1	24054	11446.065217485988	216
1	24055	11446.065217485988	216
1	24056	11446.065217485988	216
1	24057	11446.065217485988	216
1	24058	11446.065217485988	216
1	24071	11446.565217485988	217
1	24226	11450.665217485988	218
1	24492	11699.159787581628	218
1	24504	11699.359787581628	219
1	24506	11699.559787581628	220
1	24507	11699.659787581628	220
1	24509	11699.659787581628	228
1	24517	11699.859787581628	228
1	24518	11699.859787581628	228
1	24519	11699.859787581628	228
1	24520	11699.859787581628	228
1	24521	11699.859787581628	228
1	24522	11699.859787581628	228
1	24523	11699.859787581628	228
1	24529	11700.359787581628	229
1	24613	11702.859787581628	230
1	25219	13503.477967490476	231
1	25347	13507.677967490476	232
1	25367	13508.277967490476	233
1	25389	13508.877967490476	234
1	26029	14318.095238098966	235
1	26041	14318.295238098966	236
1	26043	14318.495238098966	237
1	26044	14318.595238098966	237
1	26046	14318.595238098966	245
1	26054	14318.795238098966	245
1	26055	14318.795238098966	245
1	26056	14318.795238098966	245
1	26057	14318.795238098966	245
1	26058	14318.795238098966	245
1	26059	14318.795238098966	245
1	26060	14318.795238098966	245
1	26073	14319.295238098966	246
1	26238	14325.395238098966	247
1	26289	14327.095238098966	248
1	26301	14327.295238098966	249
1	26303	14327.495238098966	250
1	26304	14327.595238098966	250
1	26306	14327.595238098966	258
1	26314	14327.795238098966	258
1	26315	14327.795238098966	258
1	26316	14327.795238098966	258
1	26317	14327.795238098966	258
1	26318	14327.795238098966	258
1	26319	14327.795238098966	258
1	26320	14327.795238098966	258
1	26326	14328.295238098966	259
1	26427	14331.295238098966	260
1	26639	14819.484234322624	261
1	26651	14819.684234322624	262
1	26653	14819.884234322624	263
1	26654	14819.984234322624	263
1	26656	14819.984234322624	271
1	26664	14820.184234322624	271
1	26665	14820.184234322624	271
1	26666	14820.184234322624	271
1	26667	14820.184234322624	271
1	26668	14820.184234322624	271
1	26669	14820.184234322624	271
1	26670	14820.184234322624	271
1	26683	14820.684234322624	272
1	26834	14824.784234322624	273
1	27160	20593.282995942808	274
1	27180	20593.882995942808	275
1	27202	20594.482995942808	276
1	28775	22444.230879209632	277
1	28795	22444.830879209632	278
1	28817	22445.430879209632	279
1	29973	25867.752105094656	280
1	30526	25884.752105094656	281
1	30529	25885.052105094656	282
1	30543	25885.252105094656	283
1	30545	25885.452105094656	284
1	30546	25885.552105094656	284
1	30548	25885.552105094656	292
1	30556	25885.752105094656	292
1	30557	25885.752105094656	292
1	30558	25885.752105094656	292
1	30559	25885.752105094656	292
1	30560	25885.752105094656	292
1	30561	25885.752105094656	292
1	30562	25885.752105094656	292
1	30567	25886.252105094656	293
1	30604	36376.447266993792	294
1	30616	36376.647266993792	295
1	30618	36376.847266993792	296
1	30619	36376.947266993792	296
1	30621	36376.947266993792	304
1	30629	36377.147266993792	304
1	30630	36377.147266993792	304
1	30631	36377.147266993792	304
1	30632	36377.147266993792	304
1	30633	36377.147266993792	304
1	30634	36377.147266993792	304
1	30635	36377.147266993792	304
1	30648	36377.647266993792	305
1	30743	36381.347266993792	306
1	31212	36431.816413663272	307
1	31232	36432.416413663272	308
1	31254	36433.016413663272	309
2	6	142.523350595457	0
2	300	153.223350595457	1
2	577	201.525246062671	2
2	598	202.125246062671	3
2	619	202.725246062671	4
2	1016	273.996640483444	5
2	1069	275.996640483444	6
2	1367	287.796640483444	7
2	1442	290.496640483444	8
2	2038	625.313940340951	9
2	2041	625.613940340951	10
2	2057	625.813940340951	11
2	2059	626.013940340951	12
2	2060	626.113940340951	12
2	2069	626.313940340951	20
2	2070	626.313940340951	20
2	2071	626.313940340951	20
2	2072	626.313940340951	20
2	2073	626.313940340951	20
2	2074	626.313940340951	20
2	2075	626.313940340951	20
2	2076	626.313940340951	20
2	2082	626.813940340951	21
2	2102	627.513940340951	22
2	2350	689.95178752713	23
2	2372	690.55178752713	24
2	2403	691.35178752713	25
2	3276	959.994993687504	26
2	3393	964.094993687504	27
2	3556	969.867576515062	29
2	3565	969.967576515062	29
2	3583	970.167576515062	37
2	3584	970.167576515062	37
2	3585	970.167576515062	37
2	3586	970.167576515062	37
2	3587	970.167576515062	37
2	3588	970.167576515062	37
2	3589	970.167576515062	37
2	3590	970.167576515062	37
2	3621	970.667576515062	38
2	3642	971.094993687504	39
2	3693	971.694993687504	40
2	3734	972.294993687504	41
2	3806	973.567576515062	42
2	3949	975.767576515062	42
2	3978	976.367576515062	43
2	4001	976.967576515062	44
2	4311	987.267576515062	45
2	4332	987.867576515062	46
2	4804	1113.296671369968	47
2	4919	1117.496671369968	48
2	4941	1118.096671369968	49
2	4972	1118.896671369968	50
2	5029	1247.494413437908	51
2	5922	1383.719569044689	52
2	5997	1386.419569044689	53
2	6163	1392.619569044689	54
2	6687	1825.7921511216	55
2	6960	2210.56192868072	56
2	6963	2210.86192868072	57
2	6989	2211.46192868072	58
2	7407	2401.08171531051	59
2	8082	2798.52776102275	60
2	8103	2799.12776102275	61
2	8124	2799.72776102275	62
2	9208	3157.01236294704	63
2	9230	3157.61236294704	64
2	9261	3158.41236294704	65
2	9578	3292.21031279102	66
2	9847	3302.728249250733	67
2	9866	3303.13968937844	68
2	9889	3303.33968937844	69
2	9900	3303.53968937844	70
2	9902	3303.63968937844	70
2	9917	3303.83968937844	78
2	9918	3303.83968937844	78
2	9919	3303.83968937844	78
2	9920	3303.83968937844	78
2	9921	3303.83968937844	78
2	9922	3303.83968937844	78
2	9923	3303.83968937844	78
2	9924	3303.83968937844	78
2	9957	3304.33968937844	79
2	10044	3305.83968937844	80
2	10189	3308.228249250733	81
2	10423	3312.328249250733	82
2	11423	3837.795135572236	83
2	11444	3838.395135572236	84
2	11465	3838.995135572236	85
2	11852	4047.183173861268	86
2	12057	4053.483173861268	87
2	12283	5085.167263270138	88
2	12304	5085.767263270138	89
2	12683	5109.02615111917	90
2	12705	5109.62615111917	91
2	12763	5111.72615111917	92
2	13865	6576.931710624676	93
2	13886	6577.531710624676	94
2	13907	6578.131710624676	95
2	14333	6796.616430489428	96
2	14408	6799.316430489428	97
2	14429	6799.916430489428	98
2	14450	6800.516430489428	99
2	14649	6806.216430489428	100
2	14855	7375.13003905875	101
2	14888	7376.43003905875	102
2	14999	7379.93003905875	103