version 2
run n-128-0-20130122-16:30:40-8495
attr configname n-128
attr datetime 20130122-16:30:40
attr experiment n-128
attr inifile omnetpp.ini
attr iterationvars $0=128
attr iterationvars2 "$0=128, $repetition=0"
attr measurement $0=128
attr network SimphonyDHTNetwork
attr processid 8495
attr repetition 0
attr replication #0
attr resultdir results
attr runnumber 0
attr seedset 0

vector 0  SimphonyDHTNetwork.members[34]  ""  ETV
vector 1  SimphonyDHTNetwork.members[35]  ""  ETV
vector 2  SimphonyDHTNetwork.members[36]  ""  ETV
vector 3  SimphonyDHTNetwork.members[25]  ""  ETV
vector 4  SimphonyDHTNetwork.members[26]  ""  ETV
vector 5  SimphonyDHTNetwork.members[27]  ""  ETV
vector 6  SimphonyDHTNetwork.members[43]  ""  ETV
vector 7  SimphonyDHTNetwork.members[44]  ""  ETV
vector 8  SimphonyDHTNetwork.members[45]  ""  ETV
vector 9  SimphonyDHTNetwork.members[24]  ""  ETV
vector 10  SimphonyDHTNetwork.members[15]  ""  ETV
vector 11  SimphonyDHTNetwork.members[16]  ""  ETV
vector 12  SimphonyDHTNetwork.members[17]  ""  ETV
vector 13  SimphonyDHTNetwork.members[33]  ""  ETV
vector 14  SimphonyDHTNetwork.members[14]  ""  ETV
vector 15  SimphonyDHTNetwork.members[5]  ""  ETV
vector 16  SimphonyDHTNetwork.members[6]  ""  ETV
vector 17  SimphonyDHTNetwork.members[7]  ""  ETV
vector 18  SimphonyDHTNetwork.members[23]  ""  ETV
vector 19  SimphonyDHTNetwork.members[13]  ""  ETV
vector 20  SimphonyDHTNetwork.members[4]  ""  ETV
vector 21  SimphonyDHTNetwork.members[22]  ""  ETV
vector 22  SimphonyDHTNetwork.members[12]  ""  ETV
vector 23  SimphonyDHTNetwork.members[64]  ""  ETV
vector 24  SimphonyDHTNetwork.members[11]  ""  ETV
vector 25  SimphonyDHTNetwork.members[2]  ""  ETV
vector 26  SimphonyDHTNetwork.members[3]  ""  ETV
vector 27  SimphonyDHTNetwork.members[20]  ""  ETV
vector 28  SimphonyDHTNetwork.members[21]  ""  ETV
vector 29  SimphonyDHTNetwork.members[10]  ""  ETV
vector 30  SimphonyDHTNetwork.members[1]  ""  ETV
vector 31  SimphonyDHTNetwork.members[0]  ""  ETV
vector 32  SimphonyDHTNetwork.members[9]  ""  ETV
vector 33  SimphonyDHTNetwork.members[63]  ""  ETV
vector 34  SimphonyDHTNetwork.members[65]  ""  ETV
vector 35  SimphonyDHTNetwork.members[30]  ""  ETV
vector 36  SimphonyDHTNetwork.members[31]  ""  ETV
vector 37  SimphonyDHTNetwork.members[32]  ""  ETV
vector 38  SimphonyDHTNetwork.members[39]  ""  ETV
vector 39  SimphonyDHTNetwork.members[40]  ""  ETV
vector 40  SimphonyDHTNetwork.members[41]  ""  ETV
vector 41  SimphonyDHTNetwork.members[29]  ""  ETV
vector 42  SimphonyDHTNetwork.members[38]  ""  ETV
vector 43  SimphonyDHTNetwork.members[28]  ""  ETV
vector 44  SimphonyDHTNetwork.members[19]  ""  ETV
vector 45  SimphonyDHTNetwork.members[37]  ""  ETV
vector 46  SimphonyDHTNetwork.members[18]  ""  ETV
vector 47  SimphonyDHTNetwork.members[66]  ""  ETV
vector 48  SimphonyDHTNetwork.members[8]  ""  ETV
vector 49  SimphonyDHTNetwork.members[62]  ""  ETV
vector 50  SimphonyDHTNetwork.members[53]  ""  ETV
vector 51  SimphonyDHTNetwork.members[54]  ""  ETV
vector 52  SimphonyDHTNetwork.members[55]  ""  ETV
vector 53  SimphonyDHTNetwork.members[52]  ""  ETV
vector 54  SimphonyDHTNetwork.members[51]  ""  ETV
vector 55  SimphonyDHTNetwork.members[42]  ""  ETV
vector 56  SimphonyDHTNetwork.members[60]  ""  ETV
vector 57  SimphonyDHTNetwork.members[61]  ""  ETV
vector 58  SimphonyDHTNetwork.members[50]  ""  ETV
vector 59  SimphonyDHTNetwork.members[67]  ""  ETV
vector 60  SimphonyDHTNetwork.members[48]  ""  ETV
vector 61  SimphonyDHTNetwork.members[49]  ""  ETV
vector 62  SimphonyDHTNetwork.members[57]  ""  ETV
vector 63  SimphonyDHTNetwork.members[58]  ""  ETV
vector 64  SimphonyDHTNetwork.members[59]  ""  ETV
vector 65  SimphonyDHTNetwork.members[47]  ""  ETV
vector 66  SimphonyDHTNetwork.members[56]  ""  ETV
vector 67  SimphonyDHTNetwork.members[46]  ""  ETV
vector 68  SimphonyDHTNetwork.members[68]  ""  ETV
vector 69  SimphonyDHTNetwork.members[69]  ""  ETV
vector 70  SimphonyDHTNetwork.members[70]  ""  ETV
vector 71  SimphonyDHTNetwork.members[71]  ""  ETV
vector 72  SimphonyDHTNetwork.members[72]  ""  ETV
vector 73  SimphonyDHTNetwork.members[73]  ""  ETV
vector 74  SimphonyDHTNetwork.members[74]  ""  ETV
vector 75  SimphonyDHTNetwork.members[75]  ""  ETV
vector 76  SimphonyDHTNetwork.members[76]  ""  ETV
vector 77  SimphonyDHTNetwork.members[77]  ""  ETV
vector 78  SimphonyDHTNetwork.members[78]  ""  ETV
vector 79  SimphonyDHTNetwork.members[79]  ""  ETV
vector 80  SimphonyDHTNetwork.members[80]  ""  ETV
vector 81  SimphonyDHTNetwork.members[81]  ""  ETV
vector 82  SimphonyDHTNetwork.members[82]  ""  ETV
vector 83  SimphonyDHTNetwork.members[83]  ""  ETV
vector 84  SimphonyDHTNetwork.members[84]  ""  ETV
vector 85  SimphonyDHTNetwork.members[85]  ""  ETV
vector 86  SimphonyDHTNetwork.members[86]  ""  ETV
vector 87  SimphonyDHTNetwork.members[87]  ""  ETV
vector 88  SimphonyDHTNetwork.members[88]  ""  ETV
vector 89  SimphonyDHTNetwork.members[89]  ""  ETV
vector 90  SimphonyDHTNetwork.members[90]  ""  ETV
vector 91  SimphonyDHTNetwork.members[91]  ""  ETV
vector 92  SimphonyDHTNetwork.members[92]  ""  ETV
vector 93  SimphonyDHTNetwork.members[93]  ""  ETV
vector 94  SimphonyDHTNetwork.members[94]  ""  ETV
vector 95  SimphonyDHTNetwork.members[95]  ""  ETV
vector 96  SimphonyDHTNetwork.members[96]  ""  ETV
vector 97  SimphonyDHTNetwork.members[97]  ""  ETV
vector 98  SimphonyDHTNetwork.members[98]  ""  ETV
vector 99  SimphonyDHTNetwork.members[99]  ""  ETV
vector 100  SimphonyDHTNetwork.members[100]  ""  ETV
vector 101  SimphonyDHTNetwork.members[101]  ""  ETV
vector 102  SimphonyDHTNetwork.members[102]  ""  ETV
vector 103  SimphonyDHTNetwork.members[103]  ""  ETV
vector 104  SimphonyDHTNetwork.members[104]  ""  ETV
vector 105  SimphonyDHTNetwork.members[105]  ""  ETV
vector 106  SimphonyDHTNetwork.members[106]  ""  ETV
vector 107  SimphonyDHTNetwork.members[107]  ""  ETV
vector 108  SimphonyDHTNetwork.members[108]  ""  ETV
vector 109  SimphonyDHTNetwork.members[109]  ""  ETV
vector 110  SimphonyDHTNetwork.members[110]  ""  ETV
vector 111  SimphonyDHTNetwork.members[111]  ""  ETV
vector 112  SimphonyDHTNetwork.members[112]  ""  ETV
vector 113  SimphonyDHTNetwork.members[113]  ""  ETV
vector 114  SimphonyDHTNetwork.members[114]  ""  ETV
vector 115  SimphonyDHTNetwork.members[115]  ""  ETV
vector 116  SimphonyDHTNetwork.members[116]  ""  ETV
vector 117  SimphonyDHTNetwork.members[117]  ""  ETV
vector 118  SimphonyDHTNetwork.members[118]  ""  ETV
vector 119  SimphonyDHTNetwork.members[119]  ""  ETV
vector 120  SimphonyDHTNetwork.members[120]  ""  ETV
vector 121  SimphonyDHTNetwork.members[121]  ""  ETV
vector 122  SimphonyDHTNetwork.members[122]  ""  ETV
vector 123  SimphonyDHTNetwork.members[123]  ""  ETV
vector 124  SimphonyDHTNetwork.members[124]  ""  ETV
vector 125  SimphonyDHTNetwork.members[125]  ""  ETV
vector 126  SimphonyDHTNetwork.members[126]  ""  ETV
vector 127  SimphonyDHTNetwork.members[127]  ""  ETV
0	2	6506.19082423183	0
0	5	6506.49082423183	1
0	31	6507.09082423183	2
0	356	6605.840484907365	3
0	377	6606.440484907365	4
0	661	6713.803347056122	5
0	757	6717.203347056122	6
0	979	6724.803347056122	7
0	1855	6901.18968569201	8
0	2071	6909.78968569201	9
0	2089	6910.38968569201	10
0	2207	6914.58968569201	11
0	2225	6915.18968569201	12
0	2646	7015.517708106767	13
0	2905	7114.913809390657	14
0	3037	7119.713809390657	15
0	3142	7202.021364894459	16
0	3936	7320.469966771749	17
0	3958	7320.869966771749	18
0	4298	7405.514419320748	19
0	4319	7406.114419320748	20
0	5430	7729.179150212776	21
0	5448	7729.779150212776	22
0	5698	7738.379150212776	23
0	7398	8106.055184950512	24
0	7790	8212.994945834967	25
0	7880	8216.394945834967	26
0	7955	8219.094945834967	27
0	8342	8425.263510616943	28
0	8355	8425.463510616943	29
0	8357	8425.663510616943	30
0	8358	8425.763510616943	30
0	8367	8425.963510616943	38
0	8368	8425.963510616943	38
0	8369	8425.963510616943	38
0	8370	8425.963510616943	38
0	8371	8425.963510616943	38
0	8372	8425.963510616943	38
0	8373	8425.963510616943	38
0	8374	8425.963510616943	38
0	8387	8426.463510616943	39
0	8400	8427.163510616943	40
0	8417	8427.963510616943	41
0	8430	8428.163510616943	42
0	8432	8428.363510616943	43
0	8433	8428.463510616943	43
0	8442	8428.663510616943	51
0	8443	8428.663510616943	51
0	8444	8428.663510616943	51
0	8445	8428.663510616943	51
0	8446	8428.663510616943	51
0	8447	8428.663510616943	51
0	8448	8428.663510616943	51
0	8449	8428.663510616943	51
0	8462	8429.163510616943	52
0	8551	8432.063510616943	53
0	8568	8432.863510616943	54
0	8588	8433.463510616943	55
0	8609	8434.063510616943	56
0	8856	8516.46107799457	57
0	9031	8522.06107799457	58
0	9153	8526.26107799457	59
0	9260	8529.76107799457	60
0	9636	8611.345612257751	61
0	9654	8611.945612257751	62
0	9805	8704.121152904663	63
0	9808	8704.421152904663	64
0	9824	8704.621152904663	65
0	9826	8704.821152904663	66
0	9827	8704.921152904663	66
0	9837	8705.321152904663	67
0	9841	8705.321152904663	68
0	9845	8705.621152904663	68
0	9849	8705.621152904663	69
0	9854	8705.921152904663	69
0	9908	8707.921152904663	70
0	10059	8712.821152904663	71
0	10500	8911.989124675509	72
0	10520	8912.589124675509	73
0	10541	8913.189124675509	74
0	12377	9204.674260660178	75
0	12471	9208.074260660178	76
0	12546	9210.774260660178	77
0	13194	9406.734040286205	78
0	13197	9407.034040286205	79
0	13223	9407.634040286205	80
0	13648	9510.180286884284	81
0	13812	9615.49042689791	82
0	14464	9709.189619642826	83
0	14474	9709.489619642826	84
0	14500	9709.689619642826	85
0	14502	9709.689619642826	86
0	14512	9709.989619642826	86
0	14518	9709.989619642826	94
0	14533	9710.189619642826	94
0	14534	9710.189619642826	94
0	14535	9710.189619642826	94
0	14536	9710.189619642826	94
0	14537	9710.189619642826	94
0	14538	9710.189619642826	94
0	14539	9710.189619642826	94
0	14553	9710.489619642826	95
0	14573	9710.789619642826	96
0	14674	9712.289619642826	97
0	14706	9712.889619642826	98
0	14743	9713.489619642826	99
0	14857	9715.089619642826	100
0	15391	9908.421020602245	101
0	15574	9914.121020602245	102
0	15744	10004.33112557304	103
0	16395	10111.544277935276	104
0	16526	10116.044277935276	105
0	16660	10120.244277935276	106
0	17203	10214.59183156413	107
0	17369	10219.19183156413	108
0	17399	10306.173243108065	109
0	17782	10318.373243108065	110
0	17811	10319.173243108065	111
0	19090	10636.729466420536	112
0	19219	10640.829466420536	113
0	19239	10641.429466420536	114
0	19261	10642.029466420536	115
0	19334	10701.47635108156	116
0	19423	10704.07635108156	117
0	20213	10813.178264133522	118
0	20242	10813.978264133522	119
0	20270	10814.778264133522	120
0	20553	10822.578264133522	121
0	20582	10823.378264133522	122
0	20610	10824.178264133522	123
0	20791	10829.178264133522	124
0	20820	10829.978264133522	125
0	20903	10832.278264133522	126
0	20923	10832.878264133522	127
0	20945	10833.478264133522	128
0	21926	11106.159135454256	129
0	21929	11106.459135454256	130
0	21945	11106.659135454256	131
0	21947	11106.659135454256	132
0	21948	11106.959135454256	132
0	21950	11106.959135454256	140
0	21958	11107.159135454256	140
0	21959	11107.159135454256	140
0	21960	11107.159135454256	140
0	21961	11107.159135454256	140
0	21962	11107.159135454256	140
0	21963	11107.159135454256	140
0	21964	11107.159135454256	140
0	21969	11107.459135454256	141
0	22546	11262.301003502432	142
0	22558	11262.501003502432	143
0	22560	11262.501003502432	144
0	22561	11262.801003502432	144
0	22563	11262.801003502432	152
0	22571	11263.001003502432	152
0	22572	11263.001003502432	152
0	22573	11263.001003502432	152
0	22574	11263.001003502432	152
0	22575	11263.001003502432	152
0	22576	11263.001003502432	152
0	22577	11263.001003502432	152
0	22590	11263.501003502432	153
0	22732	11267.901003502432	154
0	22767	11269.401003502432	155
0	22779	11269.601003502432	156
0	22781	11269.601003502432	157
0	22782	11269.901003502432	157
0	22784	11269.901003502432	165
0	22792	11270.101003502432	165
0	22793	11270.101003502432	165
0	22794	11270.101003502432	165
0	22795	11270.101003502432	165
0	22796	11270.101003502432	165
0	22797	11270.101003502432	165
0	22798	11270.101003502432	165
0	22811	11270.601003502432	166
0	22940	11274.301003502432	167
0	22975	11275.801003502432	168
0	22987	11276.001003502432	169
0	22989	11276.001003502432	170
0	22990	11276.301003502432	170
0	22992	11276.301003502432	178
0	23000	11276.501003502432	178
0	23001	11276.501003502432	178
0	23002	11276.501003502432	178
0	23003	11276.501003502432	178
0	23004	11276.501003502432	178
0	23005	11276.501003502432	178
0	23006	11276.501003502432	178
0	23019	11277.001003502432	179
0	23116	11279.901003502432	180
0	23238	11313.687427150941	181
0	23258	11313.987427150941	182
0	23278	11314.187427150941	183
0	23280	11314.187427150941	184
0	23286	11314.487427150941	184
0	23288	11314.487427150941	192
0	23294	11314.487427150941	193
0	23311	11314.687427150941	193
0	23312	11314.687427150941	193
0	23313	11314.687427150941	193
0	23314	11314.687427150941	193
0	23315	11314.687427150941	193
0	23316	11314.687427150941	193
0	23317	11314.687427150941	193
0	23339	11315.187427150941	194
0	23345	11315.287427150941	195
0	23597	11318.887427150941	196
0	23756	11321.187427150941	197
0	23808	11321.787427150941	198
0	23835	11322.387427150941	199
0	24294	11416.319158536257	200
0	24329	11416.919158536257	201
0	24363	11417.519158536257	202
0	24679	11508.620805332672	203
0	24815	11513.220805332672	204
0	24996	11518.920805332672	205
0	25090	11607.150646770832	206
0	25303	11614.050646770832	207
0	25324	11614.650646770832	208
0	25527	11620.650646770832	209
0	25581	11622.650646770832	210
0	26142	11721.479415809911	211
0	26171	11722.279415809911	212
0	26199	11723.079415809911	213
0	28335	12018.868640740706	214
0	28347	12019.068640740706	215
0	28349	12019.068640740706	216
0	28350	12019.368640740706	216
0	28352	12019.368640740706	224
0	28360	12019.568640740706	224
0	28361	12019.568640740706	224
0	28362	12019.568640740706	224
0	28363	12019.568640740706	224
0	28364	12019.568640740706	224
0	28365	12019.568640740706	224
0	28366	12019.568640740706	224
0	28379	12020.068640740706	225
0	28508	12023.768640740706	226
0	28535	12024.868640740706	227
0	28547	12025.068640740706	228
0	28549	12025.068640740706	229
0	28550	12025.368640740706	229
0	28552	12025.368640740706	237
0	28560	12025.568640740706	237
0	28561	12025.568640740706	237
0	28562	12025.568640740706	237
0	28563	12025.568640740706	237
0	28564	12025.568640740706	237
0	28565	12025.568640740706	237
0	28566	12025.568640740706	237
0	28579	12026.068640740706	238
0	28708	12029.768640740706	239
0	28735	12030.868640740706	240
0	28747	12031.068640740706	241
0	28749	12031.068640740706	242
0	28750	12031.368640740706	242
0	28752	12031.368640740706	250
0	28760	12031.568640740706	250
0	28761	12031.568640740706	250
0	28762	12031.568640740706	250
0	28763	12031.568640740706	250
0	28764	12031.568640740706	250
0	28765	12031.568640740706	250
0	28766	12031.568640740706	250
0	28779	12032.068640740706	251
0	28855	12034.668640740706	252
0	28964	12105.331274561461	253
0	29288	12205.125012299224	254
0	31042	12317.469554097924	255
0	31217	12320.769554097924	256
0	31369	12415.331683015333	257
0	31398	12416.131683015333	258
0	31722	12426.231683015333	259
0	31725	12426.531683015333	260
0	31739	12426.731683015333	261
0	31741	12426.731683015333	262
0	31742	12427.031683015333	262
0	31744	12427.031683015333	270
0	31752	12427.231683015333	270
0	31753	12427.231683015333	270
0	31754	12427.231683015333	270
0	31755	12427.231683015333	270
0	31756	12427.231683015333	270
0	31757	12427.231683015333	270
0	31758	12427.231683015333	270
0	31764	12427.531683015333	271
0	31776	12427.831683015333	272
0	32183	12522.380721971495	273
0	32213	12523.180721971495	274
0	32234	12523.780721971495	275
0	32879	12613.415558433742	276
0	32925	12614.215558433742	277
0	32946	12614.815558433742	278
0	33361	12706.087122692521	279
0	33581	12709.187122692521	280
0	33653	12710.287122692521	281
0	33750	12712.687122692521	282
0	34087	12821.766353332725	283
0	34314	12824.966353332725	284
1	3	6506.29082423183	1
1	4	6506.39082423183	1
1	13	6506.59082423183	9
1	14	6506.59082423183	9
1	15	6506.59082423183	9
1	16	6506.59082423183	9
1	17	6506.59082423183	9
1	18	6506.59082423183	9
1	19	6506.59082423183	9
1	20	6506.59082423183	9
1	32	6507.09082423183	10
1	88	6509.19082423183	11
1	336	6605.240484907365	11
1	357	6605.840484907365	12
1	378	6606.440484907365	13
1	1827	6900.28968569201	14
1	1830	6900.58968569201	15
1	1856	6901.18968569201	16
1	2072	6909.78968569201	17
1	2208	6914.58968569201	18
1	4143	7323.769966771749	19
1	4299	7405.514419320748	20
1	4922	7516.695479773682	21
1	4997	7519.395479773682	22
1	5142	7524.295479773682	23
1	5431	7729.179150212776	24
1	6260	7832.589133742141	25
1	7035	8008.177460768184	26
1	7289	8016.777460768184	27
1	7791	8212.994945834967	28
1	7881	8216.394945834967	29
1	7956	8219.094945834967	30
1	8343	8425.263510616943	31
1	8360	8425.863510616943	32
1	8418	8427.963510616943	33
1	8435	8428.563510616943	34
1	8569	8432.863510616943	35
1	8589	8433.463510616943	36
1	8986	8520.56107799457	37
1	9002	8521.16107799457	38
1	9007	8521.46107799457	39
1	9032	8522.06107799457	40
1	9124	8525.36107799457	41
1	9129	8525.66107799457	42
1	9154	8526.26107799457	43
1	9231	8528.86107799457	44
1	9236	8529.16107799457	45
1	9261	8529.76107799457	46
1	9637	8611.345612257751	47
1	9785	8703.521152904663	48
1	9790	8703.821152904663	49
1	9804	8704.021152904663	50
1	9806	8704.221152904663	51
1	9807	8704.321152904663	51
1	9816	8704.521152904663	59
1	9817	8704.521152904663	59
1	9818	8704.521152904663	59
1	9819	8704.521152904663	59
1	9820	8704.521152904663	59
1	9821	8704.521152904663	59
1	9822	8704.521152904663	59
1	9823	8704.521152904663	59
1	9828	8705.021152904663	60
1	10474	8911.089124675509	61
1	10479	8911.389124675509	62
1	10501	8911.989124675509	63
1	10521	8912.589124675509	64
1	11485	9023.888341314875	65
1	13183	9406.434040286205	66
1	13193	9406.634040286205	67
1	13195	9406.834040286205	68
1	13196	9406.934040286205	68
1	13205	9407.134040286205	76
1	13206	9407.134040286205	76
1	13207	9407.134040286205	76
1	13208	9407.134040286205	76
1	13209	9407.134040286205	76
1	13210	9407.134040286205	76
1	13211	9407.134040286205	76
1	13212	9407.134040286205	76
1	13224	9407.634040286205	77
1	13314	9410.334040286205	78
1	13783	9614.59042689791	79
1	13788	9614.89042689791	80
1	13813	9615.49042689791	81
1	14421	9708.589619642826	82
1	14436	9708.889619642826	83
1	14451	9709.089619642826	84
1	14469	9709.289619642826	85
1	14473	9709.389619642826	85
1	14483	9709.589619642826	93
1	14484	9709.589619642826	93
1	14485	9709.589619642826	93
1	14486	9709.589619642826	93
1	14487	9709.589619642826	93
1	14488	9709.589619642826	93
1	14489	9709.589619642826	93
1	14490	9709.589619642826	93
1	14519	9710.089619642826	94
1	14574	9710.889619642826	95
1	14608	9711.389619642826	96
1	14623	9711.689619642826	97
1	14675	9712.289619642826	98
1	14707	9712.889619642826	99
1	14792	9714.189619642826	100
1	14813	9714.489619642826	101
1	14858	9715.089619642826	102
1	15392	9908.421020602245	103
1	15575	9914.121020602245	104
1	16396	10111.544277935276	105
1	16527	10116.044277935276	106
1	16661	10120.244277935276	107
1	17349	10218.59183156413	108
1	17354	10218.89183156413	109
1	17368	10219.09183156413	110
1	17370	10219.29183156413	111
1	17371	10219.39183156413	111
1	17400	10306.173243108065	112
1	17756	10317.573243108065	113
1	17783	10318.373243108065	114
1	17812	10319.173243108065	115
1	19061	10635.829466420536	116
1	19066	10636.129466420536	117
1	19091	10636.729466420536	118
1	19190	10639.929466420536	119
1	19195	10640.229466420536	120
1	19220	10640.829466420536	121
1	19240	10641.429466420536	122
1	19335	10701.47635108156	123
1	20187	10812.378264133522	124
1	20214	10813.178264133522	125
1	20243	10813.978264133522	126
1	20527	10821.778264133522	127
1	20554	10822.578264133522	128
1	20583	10823.378264133522	129
1	20765	10828.378264133522	130
1	20792	10829.178264133522	131
1	20821	10829.978264133522	132
1	20874	10831.378264133522	133
1	20879	10831.678264133522	134
1	20904	10832.278264133522	135
1	20924	10832.878264133522	136
1	21906	11105.559135454256	137
1	21911	11105.859135454256	138
1	21925	11106.059135454256	139
1	21927	11106.259135454256	140
1	21928	11106.359135454256	140
1	21937	11106.559135454256	148
1	21938	11106.559135454256	148
1	21939	11106.559135454256	148
1	21940	11106.559135454256	148
1	21941	11106.559135454256	148
1	21942	11106.559135454256	148
1	21943	11106.559135454256	148
1	21944	11106.559135454256	148
1	21951	11107.059135454256	149
1	21970	11107.559135454256	150
1	22547	11262.301003502432	151
1	22564	11262.901003502432	152
1	22768	11269.401003502432	153
1	22785	11270.001003502432	154
1	22976	11275.801003502432	155
1	22993	11276.401003502432	156
1	23239	11313.687427150941	157
1	23259	11313.987427150941	158
1	23289	11314.487427150941	159
1	23295	11314.587427150941	160
1	23704	11320.287427150941	161
1	23716	11320.587427150941	162
1	23757	11321.187427150941	163
1	23809	11321.787427150941	164
1	24249	11415.519158536257	165
1	24295	11416.319158536257	166
1	24330	11416.919158536257	167
1	25091	11607.150646770832	168
1	25238	11611.750646770832	169
1	25304	11614.050646770832	170
1	25528	11620.650646770832	171
1	25582	11622.650646770832	172
1	26143	11721.479415809911	173
1	26172	11722.279415809911	174
1	28336	12018.868640740706	175
1	28353	12019.468640740706	176
1	28536	12024.868640740706	177
1	28553	12025.468640740706	178
1	28736	12030.868640740706	179
1	28753	12031.468640740706	180
1	28936	12104.431274561461	181
1	28941	12104.731274561461	182
1	28965	12105.331274561461	183
1	29289	12205.125012299224	184
1	30944	12316.669554097924	185
1	31043	12317.469554097924	186
1	31191	12319.969554097924	187
1	31218	12320.769554097924	188
1	31370	12415.331683015333	189
1	31399	12416.131683015333	190
1	31704	12425.631683015333	191
1	31709	12425.931683015333	192
1	31721	12426.131683015333	193
1	31723	12426.331683015333	194
1	31724	12426.431683015333	194
1	31732	12426.631683015333	201
1	31733	12426.631683015333	201
1	31734	12426.631683015333	201
1	31735	12426.631683015333	201
1	31736	12426.631683015333	201
1	31737	12426.631683015333	201
1	31738	12426.631683015333	201
1	31745	12427.131683015333	202
1	31777	12427.931683015333	203
1	31788	12510.780721971495	204
1	31793	12511.080721971495	205
1	31841	12512.680721971495	206
1	31995	12517.080721971495	207
1	32158	12521.580721971495	208
1	32184	12522.380721971495	209
1	32214	12523.180721971495	210
1	32820	12612.515558433742	211
1	32834	12612.815558433742	212
1	32880	12613.415558433742	213
1	32926	12614.215558433742	214
1	33551	12708.687122692521	215
1	33600	12709.387122692521	216
1	33610	12709.687122692521	217
1	33654	12710.287122692521	218
1	33730	12712.087122692521	219
1	33737	12712.387122692521	220
1	33749	12712.587122692521	221
1	33751	12712.787122692521	222
1	33752	12712.887122692521	222
1	34102	12821.866353332725	223
1	34266	12824.366353332725	224
1	34287	12824.666353332725	225
1	34312	12824.866353332725	226
1	34325	12825.066353332725	227
1	34326	12825.166353332725	227
2	6	6506.49082423183	0
2	316	6604.640484907365	1
2	337	6605.240484907365	2
2	358	6605.840484907365	3
2	1566	6817.752780272922	4
2	1828	6900.38968569201	6
2	1829	6900.48968569201	6
2	1838	6900.68968569201	14
2	1839	6900.68968569201	14
2	1840	6900.68968569201	14
2	1841	6900.68968569201	14
2	1842	6900.68968569201	14
2	1843	6900.68968569201	14
2	1844	6900.68968569201	14
2	1845	6900.68968569201	14
2	1857	6901.18968569201	15
2	2022	6908.18968569201	16
2	2351	7005.517708106767	16
2	3522	7311.069966771749	17
2	4114	7323.169966771749	18
2	4120	7323.469966771749	19
2	4142	7323.669966771749	20
2	4145	7323.869966771749	21
2	4155	7323.969966771749	21
2	4434	7410.114419320748	22
2	4894	7515.795479773682	23
2	4897	7516.095479773682	24
2	4923	7516.695479773682	25
2	4969	7518.495479773682	26
2	4972	7518.795479773682	27
2	4998	7519.395479773682	28
2	5114	7523.395479773682	29
2	5117	7523.695479773682	30
2	5143	7524.295479773682	31
2	6240	7831.989133742141	32
2	6261	7832.589133742141	33
2	7008	8007.277460768184	34
2	7011	8007.577460768184	35
2	7036	8008.177460768184	36
2	7269	8016.177460768184	37
2	7290	8016.777460768184	38
2	7741	8211.294945834967	39
2	7792	8212.994945834967	40
2	7882	8216.394945834967	41
2	7957	8219.094945834967	42
2	8295	8423.663510616943	43
2	8344	8425.263510616943	44
2	8419	8427.963510616943	45
2	8570	8432.863510616943	46
2	8716	8436.963510616943	47
2	8963	8519.36107799457	48
2	8980	8520.46107799457	49
2	8982	8520.46107799457	50
2	8987	8520.66107799457	51
2	8988	8520.76107799457	51
2	8992	8520.76107799457	52
2	8994	8520.76107799457	52
2	8997	8521.06107799457	53
2	9001	8521.06107799457	54
2	9003	8521.26107799457	55
2	9004	8521.36107799457	55
2	9006	8521.36107799457	63
2	9014	8521.56107799457	63
2	9015	8521.56107799457	63
2	9016	8521.56107799457	63
2	9017	8521.56107799457	63
2	9018	8521.56107799457	63
2	9019	8521.56107799457	63
2	9020	8521.56107799457	63
2	9033	8522.06107799457	64
2	9114	8524.96107799457	65
2	9116	8524.96107799457	66
2	9119	8525.26107799457	67
2	9123	8525.26107799457	68
2	9125	8525.46107799457	69
2	9126	8525.56107799457	69
2	9128	8525.56107799457	77
2	9136	8525.76107799457	77
2	9137	8525.76107799457	77
2	9138	8525.76107799457	77
2	9139	8525.76107799457	77
2	9140	8525.76107799457	77
2	9141	8525.76107799457	77
2	9142	8525.76107799457	77
2	9155	8526.26107799457	78
2	9221	8528.46107799457	79
2	9223	8528.46107799457	80
2	9226	8528.76107799457	81
2	9230	8528.76107799457	82
2	9232	8528.96107799457	83
2	9233	8529.06107799457	83
2	9235	8529.06107799457	91
2	9243	8529.26107799457	91
2	9244	8529.26107799457	91
2	9245	8529.26107799457	91
2	9246	8529.26107799457	91
2	9247	8529.26107799457	91
2	9248	8529.26107799457	91
2	9249	8529.26107799457	91
2	9262	8529.76107799457	92
2	9315	8531.86107799457	93
2	9775	8703.121152904663	94
2	9778	8703.421152904663	95
2	9784	8703.421152904663	96
2	9786	8703.621152904663	97
2	9787	8703.721152904663	97
2	9789	8703.721152904663	105
2	9797	8703.921152904663	105
2	9798	8703.921152904663	105
2	9799	8703.921152904663	105
2	9800	8703.921152904663	105
2	9801	8703.921152904663	105
2	9802	8703.921152904663	105
2	9803	8703.921152904663	105
2	9809	8704.421152904663	106
2	9829	8705.121152904663	107
2	10475	8911.189124675509	109
2	10476	8911.289124675509	109
2	10478	8911.289124675509	117
2	10486	8911.489124675509	117
2	10487	8911.489124675509	117
2	10488	8911.489124675509	117
2	10489	8911.489124675509	117
2	10490	8911.489124675509	117
2	10491	8911.489124675509	117
2	10492	8911.489124675509	117
2	10502	8911.989124675509	118
2	10659	8916.989124675509	119
2	10663	8916.989124675509	119
2	10687	8917.589124675509	120
2	10695	8917.889124675509	121
2	10710	8918.089124675509	122
2	10728	8918.389124675509	123
2	10846	8920.089124675509	124
2	10862	8920.389124675509	125
2	11075	8923.289124675509	126
2	11090	8923.589124675509	127
2	11466	9023.288341314875	128
2	11486	9023.888341314875	129
2	13184	9406.434040286205	130
2	13198	9407.034040286205	131
2	13407	9502.380286884284	132
2	13771	9614.29042689791	133
2	13782	9614.49042689791	134
2	13784	9614.69042689791	135
2	13785	9614.79042689791	135
2	13787	9614.79042689791	143
2	13795	9614.99042689791	143
2	13796	9614.99042689791	143
2	13797	9614.99042689791	143
2	13798	9614.99042689791	143
2	13799	9614.99042689791	143
2	13800	9614.99042689791	143
2	13801	9614.99042689791	143
2	13814	9615.49042689791	144
2	13922	9619.09042689791	145
2	14402	9708.189619642826	146
2	14409	9708.489619642826	147
2	14418	9708.489619642826	148
2	14422	9708.689619642826	149
2	14424	9708.789619642826	149
2	14432	9708.789619642826	157
2	14443	9708.989619642826	157
2	14444	9708.989619642826	157
2	14445	9708.989619642826	157
2	14446	9708.989619642826	157
2	14447	9708.989619642826	157
2	14448	9708.989619642826	157
2	14449	9708.989619642826	157
2	14475	9709.489619642826	158
2	14576	9710.989619642826	159
2	14587	9710.989619642826	160
2	14594	9711.289619642826	161
2	14604	9711.289619642826	162
2	14609	9711.489619642826	163
2	14610	9711.589619642826	163
2	14616	9711.589619642826	171
2	14630	9711.789619642826	171
2	14631	9711.789619642826	171
2	14632	9711.789619642826	171
2	14633	9711.789619642826	171
2	14634	9711.789619642826	171
2	14635	9711.789619642826	171
2	14636	9711.789619642826	171
2	14676	9712.289619642826	172
2	14771	9713.789619642826	173
2	14784	9714.089619642826	174
2	14790	9714.089619642826	175
2	14802	9714.289619642826	176
2	14803	9714.389619642826	176
2	14812	9714.389619642826	184
2	14821	9714.589619642826	184
2	14822	9714.589619642826	184
2	14823	9714.589619642826	184
2	14824	9714.589619642826	184
2	14825	9714.589619642826	184
2	14826	9714.589619642826	184
2	14827	9714.589619642826	184
2	14859	9715.089619642826	185
2	14929	9716.489619642826	186
2	14986	9718.489619642826	187
2	17339	10218.19183156413	188
2	17342	10218.49183156413	189
2	17348	10218.49183156413	190
2	17350	10218.69183156413	191
2	17351	10218.79183156413	191
2	17353	10218.79183156413	199
2	17361	10218.99183156413	199
2	17362	10218.99183156413	199
2	17363	10218.99183156413	199
2	17364	10218.99183156413	199
2	17365	10218.99183156413	199
2	17366	10218.99183156413	199
2	17367	10218.99183156413	199
2	17372	10219.49183156413	200
2	17566	10311.573243108065	201
2	17727	10316.773243108065	202
2	17757	10317.573243108065	203
2	17784	10318.373243108065	204
2	18049	10411.658710051665	205
2	19051	10635.429466420536	206
2	19054	10635.729466420536	207
2	19060	10635.729466420536	208
2	19062	10635.929466420536	209
2	19063	10636.029466420536	209
2	19065	10636.029466420536	217
2	19073	10636.229466420536	217
2	19074	10636.229466420536	217
2	19075	10636.229466420536	217
2	19076	10636.229466420536	217
2	19077	10636.229466420536	217
2	19078	10636.229466420536	217
2	19079	10636.229466420536	217
2	19092	10636.729466420536	218
2	19156	10638.929466420536	219
2	19180	10639.529466420536	220
2	19183	10639.829466420536	221
2	19189	10639.829466420536	222
2	19191	10640.029466420536	223
2	19192	10640.129466420536	223
2	19194	10640.129466420536	231
2	19202	10640.329466420536	231
2	19203	10640.329466420536	231
2	19204	10640.329466420536	231
2	19205	10640.329466420536	231