file 36502 1358867289                                           
version 2
run SixteenNodes-0-20130122-16:07:56-8069
attr configname SixteenNodes
attr datetime 20130122-16:07:56
attr experiment SixteenNodes
attr inifile omnetpp.ini
attr iterationvars ""
attr iterationvars2 $repetition=0
attr measurement ""
attr network SimphonyDHTNetwork
attr processid 8069
attr repetition 0
attr replication #0
attr resultdir results
attr runnumber 0
attr seedset 0

vector 0  SimphonyDHTNetwork.members[3]  ""  ETV
vector 1  SimphonyDHTNetwork.members[4]  ""  ETV
vector 2  SimphonyDHTNetwork.members[5]  ""  ETV
vector 3  SimphonyDHTNetwork.members[2]  ""  ETV
vector 4  SimphonyDHTNetwork.members[1]  ""  ETV
vector 5  SimphonyDHTNetwork.members[0]  ""  ETV
vector 6  SimphonyDHTNetwork.members[7]  ""  ETV
vector 7  SimphonyDHTNetwork.members[8]  ""  ETV
vector 8  SimphonyDHTNetwork.members[6]  ""  ETV
vector 9  SimphonyDHTNetwork.members[9]  ""  ETV
vector 10  SimphonyDHTNetwork.members[10]  ""  ETV
vector 11  SimphonyDHTNetwork.members[11]  ""  ETV
vector 12  SimphonyDHTNetwork.members[12]  ""  ETV
vector 13  SimphonyDHTNetwork.members[13]  ""  ETV
vector 14  SimphonyDHTNetwork.members[14]  ""  ETV
vector 15  SimphonyDHTNetwork.members[15]  ""  ETV
0	1185 1683 2 1162 905.610484866703 1601.18384669093 64 0 56 1745 64223
1	2868 3095 3 1254 905.710484866703 1603.68384669093 116 1 99 5713 379363
2	5963 3636 6 1267 905.910484866703 1603.98384669093 134 0 114 7668 583232
3	9599 2149 10 1300 906.210484866703 1604.98384669093 81 0 70 2832 132854
4	11748 3452 18 1306 906.810484866703 1605.38384669093 128 0 108 7092 519488
5	15200 2828 26 1303 907.410484866703 1605.08384669093 105 0 90 4661 280145
6	18028 2388 34 1284 908.010484866703 1604.28384669093 90 0 75 3330 165682
7	20416 2509 44 1287 908.610484866703 1604.58384669093 94 3 83 4010 223086
8	22925 2107 47 1120 908.710484866703 1525.135244220363 79 0 68 2686 121918
9	25032 3159 129 1174 1009.770064263933 1601.48384669093 117 0 106 6305 448545
10	28191 1448 316 1278 1110.381593006638 1604.28384669093 52 0 47 1264 40012
11	29639 2036 462 1149 1204.851281637216 1600.88384669093 73 0 65 2406 103794
12	31675 1289 610 1108 1305.755191968829 1525.035244220363 46 0 41 1002 27986
13	32964 953 885 1296 1403.531591391375 1604.88384669093 34 0 30 559 11707
14	33917 1725 1043 1305 1522.235244220363 1605.38384669093 61 0 52 1673 59037
15	35642 860 1144 1294 1600.58384669093 1604.88384669093 31 0 27 454 8388
