version 2
run SixtyfourNodes-0-20130110-18:20:41-10983
attr configname SixtyfourNodes
attr datetime 20130110-18:20:41
attr experiment SixtyfourNodes
attr inifile omnetpp.ini
attr iterationvars ""
attr iterationvars2 $repetition=0
attr measurement ""
attr network SimphonyDHTNetwork
attr processid 10983
attr repetition 0
attr replication #0
attr resultdir results
attr runnumber 0
attr seedset 0

vector 0  SimphonyDHTNetwork.members[27]  ""  ETV
vector 1  SimphonyDHTNetwork.members[28]  ""  ETV
vector 2  SimphonyDHTNetwork.members[29]  ""  ETV
vector 3  SimphonyDHTNetwork.members[18]  ""  ETV
vector 4  SimphonyDHTNetwork.members[19]  ""  ETV
vector 5  SimphonyDHTNetwork.members[20]  ""  ETV
vector 6  SimphonyDHTNetwork.members[17]  ""  ETV
vector 7  SimphonyDHTNetwork.members[8]  ""  ETV
vector 8  SimphonyDHTNetwork.members[9]  ""  ETV
vector 9  SimphonyDHTNetwork.members[10]  ""  ETV
vector 10  SimphonyDHTNetwork.members[26]  ""  ETV
vector 11  SimphonyDHTNetwork.members[16]  ""  ETV
vector 12  SimphonyDHTNetwork.members[7]  ""  ETV
vector 13  SimphonyDHTNetwork.members[25]  ""  ETV
vector 14  SimphonyDHTNetwork.members[15]  ""  ETV
vector 15  SimphonyDHTNetwork.members[6]  ""  ETV
vector 16  SimphonyDHTNetwork.members[24]  ""  ETV
vector 17  SimphonyDHTNetwork.members[14]  ""  ETV
vector 18  SimphonyDHTNetwork.members[32]  ""  ETV
vector 19  SimphonyDHTNetwork.members[13]  ""  ETV
vector 20  SimphonyDHTNetwork.members[4]  ""  ETV
vector 21  SimphonyDHTNetwork.members[5]  ""  ETV
vector 22  SimphonyDHTNetwork.members[22]  ""  ETV
vector 23  SimphonyDHTNetwork.members[23]  ""  ETV
vector 24  SimphonyDHTNetwork.members[3]  ""  ETV
vector 25  SimphonyDHTNetwork.members[33]  ""  ETV
vector 26  SimphonyDHTNetwork.members[31]  ""  ETV
vector 27  SimphonyDHTNetwork.members[0]  ""  ETV
vector 28  SimphonyDHTNetwork.members[1]  ""  ETV
vector 29  SimphonyDHTNetwork.members[12]  ""  ETV
vector 30  SimphonyDHTNetwork.members[11]  ""  ETV
vector 31  SimphonyDHTNetwork.members[2]  ""  ETV
vector 32  SimphonyDHTNetwork.members[21]  ""  ETV
vector 33  SimphonyDHTNetwork.members[30]  ""  ETV
vector 34  SimphonyDHTNetwork.members[34]  ""  ETV
vector 35  SimphonyDHTNetwork.members[35]  ""  ETV
vector 36  SimphonyDHTNetwork.members[36]  ""  ETV
vector 37  SimphonyDHTNetwork.members[37]  ""  ETV
vector 38  SimphonyDHTNetwork.members[38]  ""  ETV
vector 39  SimphonyDHTNetwork.members[39]  ""  ETV
vector 40  SimphonyDHTNetwork.members[40]  ""  ETV
vector 41  SimphonyDHTNetwork.members[41]  ""  ETV
vector 42  SimphonyDHTNetwork.members[42]  ""  ETV
vector 43  SimphonyDHTNetwork.members[43]  ""  ETV
vector 44  SimphonyDHTNetwork.members[44]  ""  ETV
vector 45  SimphonyDHTNetwork.members[45]  ""  ETV
vector 46  SimphonyDHTNetwork.members[46]  ""  ETV
0	2	3300.30425588399	0
0	5	3300.60425588399	0.14285714285714
0	25	3301.20425588399	0.068965517241379
0	46	3301.80425588399	0.061224489795918
0	571	3419.492481372552	0.0076045627376426
0	574	3419.792481372552	0.0093984962406015
0	584	3419.992481372552	0.011152416356877
0	586	3420.192481372552	0.012962962962963
0	587	3420.292481372552	0.012962962962963
0	593	3420.492481372552	0.021818181818182
0	594	3420.492481372552	0.021818181818182
0	595	3420.492481372552	0.021818181818182
0	596	3420.492481372552	0.021818181818182
0	597	3420.492481372552	0.021818181818182
0	603	3420.992481372552	0.023255813953488
0	617	3421.692481372552	0.024647887323944
0	782	3523.474876634386	0.020661157024793
0	802	3524.074876634386	0.021447721179625
0	823	3524.674876634386	0.022193211488251
0	869	3526.774876634386	0.022332506203474
0	1239	3640.801699286759	0.016536118363795
0	1259	3641.401699286759	0.017108639863131
0	1280	3642.001699286759	0.017661900756939
0	1697	3727.457842586373	0.013986013986014
0	1721	3801.912308536649	0.014447236180905
0	2174	3924.003142579418	0.011910669975186
0	2194	3924.603142579418	0.012285012285012
0	2215	3925.203142579418	0.012652068126521
0	3071	4148.952218691418	0.0094903339191564
0	3091	4149.552218691418	0.0097731239092496
0	3112	4150.152218691418	0.010051993067591
0	3450	4216.217091726781	0.0094102885821832
0	3453	4216.517091726781	0.0097056981840952
0	3463	4216.717091726781	0.01
0	3465	4216.917091726781	0.010306058713304
0	3466	4217.017091726781	0.010306058713304
0	3472	4217.217091726781	0.011830635118306
0	3473	4217.217091726781	0.011830635118306
0	3474	4217.217091726781	0.011830635118306
0	3475	4217.217091726781	0.011830635118306
0	3476	4217.217091726781	0.011830635118306
0	3481	4217.717091726781	0.012126865671642
0	3823	4418.640020748925	0.011318619128466
0	3905	4421.440020748925	0.011357340720222
0	4131	4429.140020748925	0.011009174311927
0	4201	4508.189294596267	0.01107391192377
1	3	3300.40425588399	0.5
1	4	3300.50425588399	0.5
1	10	3300.70425588399	0.5
1	11	3300.70425588399	0.5
1	12	3300.70425588399	0.5
1	13	3300.70425588399	0.5
1	14	3300.70425588399	0.5
1	26	3301.20425588399	0.23333333333333
1	82	3303.30425588399	0.10526315789474
1	557	3418.892481372552	0.015594541910331
1	560	3419.192481372552	0.017341040462428
1	570	3419.392481372552	0.019047619047619
1	572	3419.592481372552	0.020872865275142
1	573	3419.692481372552	0.020872865275142
1	579	3419.892481372552	0.029795158286778
1	580	3419.892481372552	0.029795158286778
1	581	3419.892481372552	0.029795158286778
1	582	3419.892481372552	0.029795158286778
1	583	3419.892481372552	0.029795158286778
1	589	3420.392481372552	0.031135531135531
1	618	3421.792481372552	0.031634446397188
1	783	3523.474876634386	0.026134800550206
1	803	3524.074876634386	0.026773761713521
1	870	3526.774876634386	0.026022304832714
1	980	3631.901699286759	0.024202420242024
1	1209	3640.001699286759	0.020517395182872
1	1240	3640.801699286759	0.020869565217391
1	1260	3641.401699286759	0.021367521367521
1	1501	3720.457842586373	0.018691588785047
1	1619	3724.657842586373	0.01798800799467
1	1667	3726.657842586373	0.018122977346278
1	1698	3727.457842586373	0.018424396442186
1	2144	3923.203142579418	0.015098137896326
1	2175	3924.003142579418	0.015376984126984
1	2195	3924.603142579418	0.015717092337917
1	3041	4148.152218691418	0.01171458998935
1	3072	4148.952218691418	0.01194659170766
1	3092	4149.552218691418	0.012212142358688
1	3436	4215.617091726781	0.011338582677165
1	3439	4215.917091726781	0.01163156240176
1	3449	4216.117091726781	0.011923438970819
1	3451	4216.317091726781	0.012229539040452
1	3452	4216.417091726781	0.012229539040452
1	3458	4216.617091726781	0.013754298218193
1	3459	4216.617091726781	0.013754298218193
1	3460	4216.617091726781	0.013754298218193
1	3461	4216.617091726781	0.013754298218193
1	3462	4216.617091726781	0.013754298218193
1	3468	4217.117091726781	0.014027431421446
1	3482	4217.817091726781	0.014299036369288
1	3776	4417.140020748925	0.013459335624284
1	3824	4418.640020748925	0.013578500707214
1	3906	4421.440020748925	0.013569648296871
1	4117	4428.540020748925	0.013150973172015
1	4120	4428.840020748925	0.013392857142857
1	4130	4429.040020748925	0.013633980073414
1	4132	4429.240020748925	0.013888888888889
1	4133	4429.340020748925	0.013888888888889
1	4202	4508.189294596267	0.013903192584964
1	4601	4612.949644211898	0.012935089369708
1	4655	4614.949644211898	0.01301720130172
1	4709	4616.949644211898	0.013097426470588
2	6	3300.60425588399	0
2	543	3418.292481372552	0.002
2	546	3418.592481372552	0.0039525691699605
2	556	3418.792481372552	0.005859375
2	558	3418.992481372552	0.0077821011673152
2	559	3419.092481372552	0.0077821011673152
2	565	3419.292481372552	0.017175572519084
2	566	3419.292481372552	0.017175572519084
2	567	3419.292481372552	0.017175572519084
2	568	3419.292481372552	0.017175572519084
2	569	3419.292481372552	0.017175572519084
2	575	3419.792481372552	0.018761726078799
2	619	3421.892481372552	0.019298245614035
2	729	3521.474876634386	0.017673048600884
2	784	3523.474876634386	0.017857142857143
2	871	3526.774876634386	0.017326732673267
2	981	3631.901699286759	0.016483516483516
2	1188	3639.401699286759	0.014519056261343
2	1210	3640.001699286759	0.015151515151515
2	1241	3640.801699286759	0.015638575152042
2	1462	3718.957842586373	0.014063656550703
2	1478	3719.557842586373	0.01466275659824
2	1483	3719.857842586373	0.015317286652079
2	1502	3720.457842586373	0.015804597701149
2	1596	3723.757842586373	0.015603799185889
2	1601	3724.057842586373	0.016205266711681
2	1620	3724.657842586373	0.016644474034621
2	1644	3725.757842586373	0.017127799736495
2	1649	3726.057842586373	0.017704918032787
2	1668	3726.657842586373	0.018111254851229
2	1699	3727.457842586373	0.018412698412698
2	2123	3922.603142579418	0.015243902439024
2	2145	3923.203142579418	0.015593561368209
2	2176	3924.003142579418	0.015865146256817
2	2878	4142.652218691418	0.012387387387387
2	3021	4147.552218691418	0.012151536812009
2	3042	4148.152218691418	0.012420156139106
2	3073	4148.952218691418	0.012644889357218
2	3422	4215.017091726781	0.011701454775459
2	3427	4215.317091726781	0.011991164405175
2	3435	4215.517091726781	0.012287334593573
2	3437	4215.717091726781	0.012594458438287
2	3438	4215.817091726781	0.012594458438287
2	3444	4216.017091726781	0.014124293785311
2	3445	4216.017091726781	0.014124293785311
2	3446	4216.017091726781	0.014124293785311
2	3447	4216.017091726781	0.014124293785311
2	3448	4216.017091726781	0.014124293785311
2	3454	4216.517091726781	0.014397496087637
2	3483	4217.917091726781	0.014605344934742
2	3756	4416.540020748925	0.013820904117478
2	3777	4417.140020748925	0.014028056112224
2	3825	4418.640020748925	0.014140271493213
2	3907	4421.440020748925	0.014119601328904
2	4103	4427.940020748925	0.013723937714437
2	4108	4428.240020748925	0.013962065331928
2	4116	4428.440020748925	0.014206787687451
2	4118	4428.640020748925	0.014462266631607
2	4119	4428.740020748925	0.014462266631607
2	4125	4428.940020748925	0.01573564122738
2	4126	4428.940020748925	0.01573564122738
2	4127	4428.940020748925	0.01573564122738
2	4128	4428.940020748925	0.01573564122738
2	4129	4428.940020748925	0.01573564122738
2	4134	4429.440020748925	0.015981137018601
2	4602	4612.949644211898	0.014577944980014
2	4656	4614.949644211898	0.014640948175691
2	4710	4616.949644211898	0.014702504020216
3	7	3300.60425588399	0
3	15	3300.80425588399	0.076923076923077
3	17	3301.00425588399	0.13333333333333
3	18	3301.10425588399	0.13333333333333
3	27	3301.30425588399	0.32258064516129
3	28	3301.30425588399	0.32258064516129
3	29	3301.30425588399	0.32258064516129
3	30	3301.30425588399	0.32258064516129
3	31	3301.30425588399	0.32258064516129
3	32	3301.30425588399	0.32258064516129
3	33	3301.30425588399	0.32258064516129
3	34	3301.30425588399	0.32258064516129
3	40	3301.80425588399	0.25581395348837
3	81	3303.20425588399	0.16
3	225	3405.592481372552	0.061904761904762
3	356	3410.492481372552	0.042042042042042
3	376	3411.092481372552	0.042735042735043
3	394	3411.692481372552	0.043596730245232
3	576	3419.792481372552	0.031835205992509
3	591	3420.392481372552	0.032846715328467
3	606	3420.992481372552	0.033807829181495
3	757	3522.574876634386	0.028612303290415
3	773	3523.174876634386	0.029494382022472
3	778	3523.474876634386	0.030470914127424
3	792	3523.674876634386	0.031506849315068
3	794	3523.874876634386	0.032786885245902
3	795	3523.974876634386	0.032786885245902
3	804	3524.174876634386	0.042780748663102
3	805	3524.174876634386	0.042780748663102
3	806	3524.174876634386	0.042780748663102
3	807	3524.174876634386	0.042780748663102
3	808	3524.174876634386	0.042780748663102
3	809	3524.174876634386	0.042780748663102
3	810	3524.174876634386	0.042780748663102
3	811	3524.174876634386	0.042780748663102
3	817	3524.674876634386	0.043421052631579
3	837	3525.374876634386	0.044041450777202
3	848	3525.874876634386	0.044757033248082
3	860	3526.474876634386	0.045454545454545
3	865	3526.774876634386	0.046134663341646
3	888	3527.374876634386	0.046116504854369
3	906	3527.974876634386	0.046428571428571
3	999	3632.501699286759	0.043103448275862
3	1019	3633.101699286759	0.043340380549683
3	1230	3640.501699286759	0.037004405286344
3	1235	3640.801699286759	0.037554585152838
3	1249	3641.001699286759	0.038161318300087
3	1251	3641.201699286759	0.038961038961039
3	1252	3641.301699286759	0.038961038961039
3	1261	3641.501699286759	0.045260461144321
3	1262	3641.501699286759	0.045260461144321
3	1263	3641.501699286759	0.045260461144321
3	1264	3641.501699286759	0.045260461144321
3	1265	3641.501699286759	0.045260461144321
3	1266	3641.501699286759	0.045260461144321
3	1267	3641.501699286759	0.045260461144321
3	1268	3641.501699286759	0.045260461144321
3	1274	3642.001699286759	0.045646661031276
3	1294	3642.701699286759	0.04602510460251
3	1520	3721.057842586373	0.039716312056738
3	1540	3721.657842586373	0.039915966386555
3	1559	3722.257842586373	0.04016620498615
3	1688	3727.157842586373	0.037844772289929
3	1693	3727.457842586373	0.038240917782027
3	1707	3727.657842586373	0.038681039949271
3	1709	3727.857842586373	0.039265357821406
3	1710	3727.957842586373	0.039265357821406
3	1724	3801.912308536649	0.039498432601881
3	1887	3807.112308536649	0.036571428571429
3	1907	3807.712308536649	0.036764705882353
3	1926	3808.312308536649	0.036995515695067
3	2165	3923.703142579418	0.033483258370815
3	2170	3924.003142579418	0.033814022874192
3	2184	3924.203142579418	0.034175334323923
3	2186	3924.403142579418	0.034636318654132
3	2187	3924.503142579418	0.034636318654132
3	2196	3924.703142579418	0.038291605301915
3	2197	3924.703142579418	0.038291605301915
3	2198	3924.703142579418	0.038291605301915
3	2199	3924.703142579418	0.038291605301915
3	2200	3924.703142579418	0.038291605301915
3	2201	3924.703142579418	0.038291605301915
3	2202	3924.703142579418	0.038291605301915
3	2203	3924.703142579418	0.038291605301915
3	2209	3925.203142579418	0.038555392874573
3	2299	3927.703142579418	0.03761165961448
3	2501	4020.808922159117	0.034943917169974
3	2520	4021.408922159117	0.035132819194516
3	2609	4024.408922159117	0.034325889164599
3	2629	4025.008922159117	0.03448275862069
3	2648	4025.608922159117	0.034665579119086
3	2917	4143.852218691418	0.031828275351591
3	2937	4144.452218691418	0.031985294117647
3	2956	4145.052218691418	0.032163742690058
3	3062	4148.652218691418	0.031437654539032
3	3067	4148.952218691418	0.031678986272439
3	3081	4149.152218691418	0.031941031941032
3	3083	4149.352218691418	0.032269379165205
3	3084	4149.452218691418	0.032269379165205
3	3093	4149.652218691418	0.034879665155215
3	3094	4149.652218691418	0.034879665155215
3	3095	4149.652218691418	0.034879665155215
3	3096	4149.652218691418	0.034879665155215
3	3097	4149.652218691418	0.034879665155215
3	3098	4149.652218691418	0.034879665155215
3	3099	4149.652218691418	0.034879665155215
3	3100	4149.652218691418	0.034879665155215
3	3106	4150.152218691418	0.035081625564432
3	3126	4150.852218691418	0.035281909373919
3	3455	4216.517091726781	0.032227784730914
3	3470	4217.117091726781	0.032398753894081
3	3514	4317.052395570615	0.032307692307692
3	3798	4417.740020748925	0.030225263758198
3	3814	4418.340020748925	0.030397727272727
3	3819	4418.640020748925	0.030594900849858
3	3842	4419.240020748925	0.030686936936937
3	3861	4419.840020748925	0.030829596412556
3	3896	4421.140020748925	0.030867630700779
3	3901	4421.440020748925	0.031059345535219
3	3924	4422.040020748925	0.031146637265711
3	3943	4422.640020748925	0.031284302963776
3	4153	4506.589294596267	0.029940119760479
3	4165	4506.889294596267	0.030161206448258
3	4169	4507.189294596267	0.030381719034017
3	4171	4507.189294596267	0.030625486633792
3	4176	4507.389294596267	0.030860995850622
3	4177	4507.489294596267	0.030860995850622
3	4181	4507.489294596267	0.031080031080031
3	4183	4507.489294596267	0.031080031080031
3	4186	4507.789294596267	0.031314699792961
3	4190	4507.789294596267	0.031549004396173
3	4192	4507.989294596267	0.031791160506591
3	4193	4508.089294596267	0.031791160506591
3	4195	4508.089294596267	0.033780299123259
3	4203	4508.289294596267	0.033719433719434
3	4204	4508.289294596267	0.033719433719434
3	4205	4508.289294596267	0.033719433719434
3	4206	4508.289294596267	0.033719433719434
3	4207	4508.289294596267	0.033719433719434
3	4208	4508.289294596267	0.033719433719434
3	4209	4508.289294596267	0.033719433719434
3	4220	4508.789294596267	0.033854834572967
3	4295	4511.089294596267	0.033543505674653
3	4297	4511.089294596267	0.033778674061003
3	4300	4511.389294596267	0.033996474439688
3	4381	4513.889294596267	0.033621755253399
3	4384	4514.189294596267	0.033835514941961
3	4619	4613.549644211898	0.032310934207446
3	4673	4615.549644211898	0.03216847951863
3	4727	4617.549644211898	0.032029283916724
3	4747	4618.149644211898	0.032125768967874
3	4766	4618.749644211898	0.032236095346198
4	8	3300.60425588399	0
4	20	3301.20425588399	0.041666666666667
4	336	3409.892481372552	0.0063694267515924
4	357	3410.492481372552	0.0089820359281437
4	377	3411.092481372552	0.011363636363636
4	562	3419.192481372552	0.0095969289827255
4	577	3419.792481372552	0.011214953271028
4	592	3420.392481372552	0.012750455373406
4	741	3521.774876634386	0.011695906432749
4	751	3522.474876634386	0.01294964028777
4	753	3522.474876634386	0.014347202295552
4	758	3522.674876634386	0.015714285714286
4	759	3522.774876634386	0.015714285714286
4	763	3522.774876634386	0.017021276595745
4	765	3522.774876634386	0.017021276595745
4	768	3523.074876634386	0.018361581920904
4	772	3523.074876634386	0.019690576652602
4	774	3523.274876634386	0.021037868162693
4	775	3523.374876634386	0.021037868162693
4	777	3523.374876634386	0.03185595567867
4	785	3523.574876634386	0.031550068587106
4	786	3523.574876634386	0.031550068587106
4	787	3523.574876634386	0.031550068587106
4	788	3523.574876634386	0.031550068587106
4	789	3523.574876634386	0.031550068587106
4	790	3523.574876634386	0.031550068587106
4	791	3523.574876634386	0.031550068587106
4	797	3524.074876634386	0.032388663967611
4	838	3525.474876634386	0.032341526520052
4	840	3525.474876634386	0.033548387096774
4	843	3525.774876634386	0.034704370179949
4	847	3525.774876634386	0.035851472471191
4	849	3525.974876634386	0.037037037037037
4	850	3526.074876634386	0.037037037037037
4	852	3526.074876634386	0.038216560509554
4	855	3526.374876634386	0.039340101522843
4	859	3526.374876634386	0.040455120101138
4	861	3526.574876634386	0.041614123581337
4	862	3526.674876634386	0.041614123581337
4	864	3526.674876634386	0.051122194513716
4	872	3526.874876634386	0.050679851668727
4	873	3526.874876634386	0.050679851668727
4	874	3526.874876634386	0.050679851668727
4	875	3526.874876634386	0.050679851668727
4	876	3526.874876634386	0.050679851668727
4	877	3526.874876634386	0.050679851668727
4	878	3526.874876634386	0.050679851668727
4	889	3527.374876634386	0.050909090909091
4	968	3530.274876634386	0.048152295632699
4	1000	3632.501699286759	0.047362755651238
4	1020	3633.101699286759	0.047518479408659
4	1220	3640.101699286759	0.040852575488455
4	1223	3640.401699286759	0.041592920353982
4	1229	3640.401699286759	0.042328042328042
4	1231	3640.601699286759	0.043133802816901
4	1232	3640.701699286759	0.043133802816901
4	1234	3640.701699286759	0.049781659388646
4	1242	3640.901699286759	0.049479166666667
4	1243	3640.901699286759	0.049479166666667
4	1244	3640.901699286759	0.049479166666667
4	1245	3640.901699286759	0.049479166666667
4	1246	3640.901699286759	0.049479166666667
4	1247	3640.901699286759	0.049479166666667
4	1248	3640.901699286759	0.049479166666667
4	1254	3641.401699286759	0.049828178694158
4	1295	3642.801699286759	0.04933110367893
4	1521	3721.057842586373	0.042523033309709
4	1541	3721.657842586373	0.042687193841847
4	1678	3726.757842586373	0.04
4	1681	3727.057842586373	0.040540540540541
4	1687	3727.057842586373	0.041078305519897
4	1689	3727.257842586373	0.041666666666667
4	1690	3727.357842586373	0.041666666666667
4	1692	3727.357842586373	0.046526449968133
4	1700	3727.557842586373	0.046319796954315
4	1701	3727.557842586373	0.046319796954315
4	1702	3727.557842586373	0.046319796954315
4	1703	3727.557842586373	0.046319796954315
4	1704	3727.557842586373	0.046319796954315
4	1705	3727.557842586373	0.046319796954315
4	1706	3727.557842586373	0.046319796954315
4	1711	3728.057842586373	0.046835443037975
4	1867	3806.512308536649	0.043327556325823
4	1888	3807.112308536649	0.0434037692747
4	1908	3807.712308536649	0.043527416619559
4	2155	3923.303142579418	0.039156626506024
4	2158	3923.603142579418	0.039579158316633
4	2164	3923.603142579418	0.04
4	2166	3923.803142579418	0.04045954045954
4	2167	3923.903142579418	0.04045954045954
4	2169	3923.903142579418	0.04425658876181
4	2177	3924.103142579418	0.04410307234886
4	2178	3924.103142579418	0.04410307234886
4	2179	3924.103142579418	0.04410307234886
4	2180	3924.103142579418	0.04410307234886
4	2181	3924.103142579418	0.04410307234886
4	2182	3924.103142579418	0.04410307234886
4	2183	3924.103142579418	0.04410307234886
4	2189	3924.603142579418	0.044334975369458
4	2300	3927.803142579418	0.042763157894737
4	2502	4020.808922159117	0.039672272531263
4	2589	4023.808922159117	0.038766152563568
4	2610	4024.408922159117	0.038859032658123
4	2630	4025.008922159117	0.038982355354945
4	2897	4143.252218691418	0.035780842340663
4	2918	4143.852218691418	0.035886052534221
4	2938	4144.452218691418	0.036016170525542
4	3052	4148.252218691418	0.03508150248051
4	3055	4148.552218691418	0.035385704175513
4	3061	4148.552218691418	0.035689045936396
4	3063	4148.752218691418	0.036016949152542
4	3064	4148.852218691418	0.036016949152542
4	3066	4148.852218691418	0.038718760999648
4	3074	4149.052218691418	0.038623595505618
4	3075	4149.052218691418	0.038623595505618
4	3076	4149.052218691418	0.038623595505618
4	3077	4149.052218691418	0.038623595505618
4	3078	4149.052218691418	0.038623595505618
4	3079	4149.052218691418	0.038623595505618
4	3080	4149.052218691418	0.038623595505618
4	3086	4149.552218691418	0.038811188811189
4	3127	4150.952218691418	0.038727524204703
4	3441	4215.917091726781	0.03550109959158
4	3456	4216.517091726781	0.035658429777917
4	3471	4217.117091726781	0.035814388041109
4	3787	4417.240020748925	0.033171289676866
4	3792	4417.640020748925	0.033399942906081
4	3794	4417.640020748925	0.033666191155492
4	3799	4417.840020748925	0.033922462941847
4	3800	4417.940020748925	0.033922462941847
4	3804	4417.940020748925	0.034158838599488
4	3806	4417.940020748925	0.034158838599488
4	3809	4418.240020748925	0.034414106939704
4	3813	4418.240020748925	0.034668940039784
4	3815	4418.440020748925	0.034933257597274
4	3816	4418.540020748925	0.034933257597274
4	3818	4418.540020748925	0.037110481586402
4	3826	4418.740020748925	0.037037037037037
4	3827	4418.740020748925	0.037037037037037
4	3828	4418.740020748925	0.037037037037037
4	3829	4418.740020748925	0.037037037037037
4	3830	4418.740020748925	0.037037037037037
4	3831	4418.740020748925	0.037037037037037
4	3832	4418.740020748925	0.037037037037037
4	3843	4419.240020748925	0.037151702786378
4	3886	4420.740020748925	0.037078338444382
4	3888	4420.740020748925	0.037336305377542
4	3891	4421.040020748925	0.037583518930958
4	3895	4421.040020748925	0.037830319888734
4	3897	4421.240020748925	0.038087294968029
4	3898	4421.340020748925	0.038087294968029
4	3900	4421.340020748925	0.040210759844703
4	3908	4421.540020748925	0.040132853584279
4	3909	4421.540020748925	0.040132853584279
4	3910	4421.540020748925	0.040132853584279
4	3911	4421.540020748925	0.040132853584279
4	3912	4421.540020748925	0.040132853584279
4	3913	4421.540020748925	0.040132853584279
4	3914	4421.540020748925	0.040132853584279
4	3925	4422.040020748925	0.040231468724166
4	3989	4424.040020748925	0.039913114308987
4	3991	4424.040020748925	0.040162822252374
4	3994	4424.340020748925	0.040390349688262
4	4122	4428.840020748925	0.039370078740157
4	4154	4506.589294596267	0.039302446642374
4	4164	4506.789294596267	0.039531859557867
4	4166	4506.989294596267	0.039771250324929
4	4167	4507.089294596267	0.039771250324929
4	4170	4507.189294596267	0.039979231568017
4	4174	4507.189294596267	0.040207522697795
4	4178	4507.489294596267	0.040186673580503
4	4182	4507.489294596267	0.04040404040404
4	4187	4507.789294596267	0.040362225097025
4	4301	4511.389294596267	0.039526686807654
4	4385	4514.189294596267	0.039012345679012
4	4620	4613.549644211898	0.037219101123596
4	4674	4615.549644211898	0.03701989819528
4	4728	4617.549644211898	0.036825251601098
4	4748	4618.149644211898	0.036902050113895
5	9	3300.60425588399	0
5	316	3409.292481372552	0.0033898305084746
5	337	3409.892481372552	0.0063492063492063
5	358	3410.492481372552	0.008955223880597
5	548	3418.592481372552	0.0078740157480315
5	563	3419.192481372552	0.0095785440613027
5	578	3419.792481372552	0.011194029850746
5	721	3521.174876634386	0.010526315789474
5	724	3521.474876634386	0.01186943620178
5	740	3521.674876634386	0.013177159590044
5	742	3521.874876634386	0.014598540145985
5	743	3521.974876634386	0.014598540145985
5	752	3522.474876634386	0.015804597701149
5	756	3522.474876634386	0.017167381974249
5	760	3522.774876634386	0.017118402282454
5	764	3522.774876634386	0.018439716312057
5	769	3523.074876634386	0.018335684062059
5	844	3525.774876634386	0.017971758664955
5	856	3526.374876634386	0.019011406844106
5	972	3631.501699286759	0.018973214285714
5	973	3631.801699286759	0.018973214285714
5	975	3631.801699286759	0.027624309392265
5	983	3632.001699286759	0.027412280701754
5	984	3632.001699286759	0.027412280701754
5	985	3632.001699286759	0.027412280701754
5	986	3632.001699286759	0.027412280701754
5	987	3632.001699286759	0.027412280701754
5	988	3632.001699286759	0.027412280701754
5	989	3632.001699286759	0.027412280701754
5	1001	3632.501699286759	0.027956989247312
5	1034	3633.901699286759	0.028301886792453
5	1180	3639.101699286759	0.024816176470588
5	1183	3639.401699286759	0.025524156791249
5	1199	3639.601699286759	0.02622061482821
5	1201	3639.601699286759	0.027075812274368
5	1202	3639.901699286759	0.027075812274368
5	1204	3639.901699286759	0.03401969561325
5	1212	3640.101699286759	0.033807829181495
5	1213	3640.101699286759	0.033807829181495
5	1214	3640.101699286759	0.033807829181495
5	1215	3640.101699286759	0.033807829181495
5	1216	3640.101699286759	0.033807829181495
5	1217	3640.101699286759	0.033807829181495
5	1218	3640.101699286759	0.033807829181495
5	1224	3640.401699286759	0.03448275862069
5	1297	3642.801699286759	0.03338898163606
5	1484	3719.857842586373	0.029883381924198
5	1491	3720.057842586373	0.030523255813953
5	1493	3720.057842586373	0.031204644412192
5	1494	3720.357842586373	0.031204644412192
5	1496	3720.357842586373	0.036770007209805
5	1504	3720.557842586373	0.036585365853659
5	1505	3720.557842586373	0.036585365853659
5	1506	3720.557842586373	0.036585365853659
5	1507	3720.557842586373	0.036585365853659
5	1508	3720.557842586373	0.036585365853659
5	1509	3720.557842586373	0.036585365853659
5	1510	3720.557842586373	0.036585365853659
5	1522	3721.057842586373	0.036827195467422
5	1585	3723.257842586373	0.03620218579235
5	1602	3724.057842586373	0.036437246963563
5	1609	3724.257842586373	0.037012113055182
5	1611	3724.257842586373	0.037634408602151
5	1612	3724.557842586373	0.037634408602151
5	1614	3724.557842586373	0.042752171008684
5	1622	3724.757842586373	0.042553191489362
5	1623	3724.757842586373	0.042553191489362
5	1624	3724.757842586373	0.042553191489362
5	1625	3724.757842586373	0.042553191489362
5	1626	3724.757842586373	0.042553191489362
5	1627	3724.757842586373	0.042553191489362
5	1628	3724.757842586373	0.042553191489362
5	1633	3725.257842586373	0.043103448275862
5	1650	3726.057842586373	0.043250327653997
5	1657	3726.257842586373	0.043790849673203
5	1659	3726.257842586373	0.044386422976501
5	1660	3726.557842586373	0.044386422976501
5	1662	3726.557842586373	0.049318624269955
5	1670	3726.757842586373	0.049095607235142
5	1671	3726.757842586373	0.049095607235142
5	1672	3726.757842586373	0.049095607235142
5	1673	3726.757842586373	0.049095607235142
5	1674	3726.757842586373	0.049095607235142
5	1675	3726.757842586373	0.049095607235142
5	1676	3726.757842586373	0.049095607235142
5	1682	3727.057842586373	0.04951768488746
5	1713	3728.057842586373	0.049304677623262
5	1847	3805.912308536649	0.046144859813084
5	1868	3806.512308536649	0.046189376443418
5	1889	3807.112308536649	0.046232876712329
5	2115	3922.303142579418	0.041965199590583
5	2118	3922.603142579418	0.042282221090168
5	2134	3922.803142579418	0.042596348884381
5	2136	3922.803142579418	0.04305977710233
5	2137	3923.103142579418	0.04305977710233
5	2139	3923.103142579418	0.046898638426626
5	2147	3923.303142579418	0.046733668341709
5	2148	3923.303142579418	0.046733668341709
5	2149	3923.303142579418	0.046733668341709
5	2150	3923.303142579418	0.046733668341709
5	2151	3923.303142579418	0.046733668341709
5	2152	3923.303142579418	0.046733668341709
5	2153	3923.303142579418	0.046733668341709
5	2159	3923.603142579418	0.047070605908863
5	2302	3927.803142579418	0.044600938967136
5	2590	4023.808922159117	0.04
5	2611	4024.408922159117	0.040082644628099
5	2853	4141.752218691418	0.037163443306788
5	2869	4142.352218691418	0.037358490566038
5	2874	4142.652218691418	0.037593984962406
5	2898	4143.252218691418	0.037630402384501
5	2919	4143.852218691418	0.037721893491124
5	3012	4147.252218691418	0.036997126436782
5	3017	4147.552218691418	0.037222619899785
5	3031	4147.752218691418	0.037473233404711
5	3033	4147.752218691418	0.037803138373752
5	3034	4148.052218691418	0.037803138373752
5	3036	4148.052218691418	0.040526128688233
5	3044	4148.252218691418	0.040425531914894
5	3045	4148.252218691418	0.040425531914894
5	3046	4148.252218691418	0.040425531914894
5	3047	4148.252218691418	0.040425531914894
5	3048	4148.252218691418	0.040425531914894
5	3049	4148.252218691418	0.040425531914894
5	3050	4148.252218691418	0.040425531914894
5	3056	4148.552218691418	0.040679165192784
5	3129	4150.952218691418	0.040082930200415
5	3428	4215.317091726781	0.036908517350158
5	3442	4215.917091726781	0.037060301507538
5	3457	4216.517091726781	0.037210756722952
5	3747	4416.240020748925	0.034692107545533
5	3752	4416.540020748925	0.034880368982416
5	3766	4416.740020748925	0.035087719298246
5	3768	4416.740020748925	0.035354987065249
5	3769	4417.040020748925	0.035354987065249
5	3771	4417.040020748925	0.037557339449541
5	3779	4417.240020748925	0.037482117310443
5	3780	4417.240020748925	0.037482117310443
5	3781	4417.240020748925	0.037482117310443