file 210655 1357838521                                          
version 2
run SixtyfourNodes-0-20130110-18:20:41-10983
attr configname SixtyfourNodes
attr datetime 20130110-18:20:41
attr experiment SixtyfourNodes
attr inifile omnetpp.ini
attr iterationvars ""
attr iterationvars2 $repetition=0
attr measurement ""
attr network SimphonyDHTNetwork
attr processid 10983
attr repetition 0
attr replication #0
attr resultdir results
attr runnumber 0
attr seedset 0

vector 0  SimphonyDHTNetwork.members[27]  ""  ETV
vector 1  SimphonyDHTNetwork.members[28]  ""  ETV
vector 2  SimphonyDHTNetwork.members[29]  ""  ETV
vector 3  SimphonyDHTNetwork.members[18]  ""  ETV
vector 4  SimphonyDHTNetwork.members[19]  ""  ETV
vector 5  SimphonyDHTNetwork.members[20]  ""  ETV
vector 6  SimphonyDHTNetwork.members[17]  ""  ETV
vector 7  SimphonyDHTNetwork.members[8]  ""  ETV
vector 8  SimphonyDHTNetwork.members[9]  ""  ETV
vector 9  SimphonyDHTNetwork.members[10]  ""  ETV
vector 10  SimphonyDHTNetwork.members[26]  ""  ETV
vector 11  SimphonyDHTNetwork.members[16]  ""  ETV
vector 12  SimphonyDHTNetwork.members[7]  ""  ETV
vector 13  SimphonyDHTNetwork.members[25]  ""  ETV
vector 14  SimphonyDHTNetwork.members[15]  ""  ETV
vector 15  SimphonyDHTNetwork.members[6]  ""  ETV
vector 16  SimphonyDHTNetwork.members[24]  ""  ETV
vector 17  SimphonyDHTNetwork.members[14]  ""  ETV
vector 18  SimphonyDHTNetwork.members[32]  ""  ETV
vector 19  SimphonyDHTNetwork.members[13]  ""  ETV
vector 20  SimphonyDHTNetwork.members[4]  ""  ETV
vector 21  SimphonyDHTNetwork.members[5]  ""  ETV
vector 22  SimphonyDHTNetwork.members[22]  ""  ETV
vector 23  SimphonyDHTNetwork.members[23]  ""  ETV
vector 24  SimphonyDHTNetwork.members[3]  ""  ETV
vector 25  SimphonyDHTNetwork.members[33]  ""  ETV
vector 26  SimphonyDHTNetwork.members[31]  ""  ETV
vector 27  SimphonyDHTNetwork.members[0]  ""  ETV
vector 28  SimphonyDHTNetwork.members[1]  ""  ETV
vector 29  SimphonyDHTNetwork.members[12]  ""  ETV
vector 30  SimphonyDHTNetwork.members[11]  ""  ETV
vector 31  SimphonyDHTNetwork.members[2]  ""  ETV
vector 32  SimphonyDHTNetwork.members[21]  ""  ETV
vector 33  SimphonyDHTNetwork.members[30]  ""  ETV
vector 34  SimphonyDHTNetwork.members[34]  ""  ETV
vector 35  SimphonyDHTNetwork.members[35]  ""  ETV
vector 36  SimphonyDHTNetwork.members[36]  ""  ETV
vector 37  SimphonyDHTNetwork.members[37]  ""  ETV
vector 38  SimphonyDHTNetwork.members[38]  ""  ETV
vector 39  SimphonyDHTNetwork.members[39]  ""  ETV
vector 40  SimphonyDHTNetwork.members[40]  ""  ETV
vector 41  SimphonyDHTNetwork.members[41]  ""  ETV
vector 42  SimphonyDHTNetwork.members[42]  ""  ETV
vector 43  SimphonyDHTNetwork.members[43]  ""  ETV
vector 44  SimphonyDHTNetwork.members[44]  ""  ETV
vector 45  SimphonyDHTNetwork.members[45]  ""  ETV
vector 46  SimphonyDHTNetwork.members[46]  ""  ETV
0	2774 1923 2 4201 3300.30425588399 4508.189294596267 46 0 0.14285714285714 0.88242805939392 0.038791046617644
1	4697 2516 3 4709 3300.40425588399 4616.949644211898 62 0.011338582677165 0.5 4.7832180737905 1.8343965367888
2	7213 2867 6 4710 3300.60425588399 4616.949644211898 68 0 0.019298245614035 0.96822873417988 0.014653308201257
3	10080 6419 7 4766 3300.60425588399 4618.749644211898 152 0 0.32258064516129 8.3773944483066 1.1528681620729
4	16499 7585 8 4748 3300.60425588399 4618.149644211898 179 0 0.051122194513716 6.7451576728999 0.27054903230196
5	24084 8441 9 4792 3300.60425588399 4619.749644211898 198 0 0.04951768488746 7.0048660390754 0.2655775434914
6	32525 4865 16 4765 3300.90425588399 4618.749644211898 118 0 0.22 6.132671704911 0.61612790803697
7	37390 8348 21 4789 3301.20425588399 4619.449644211898 198 0 0.064766839378238 8.3027951302121 0.35803555595543
8	45738 8016 22 4790 3301.20425588399 4619.549644211898 188 0 0.047268907563025 7.323092894406 0.29327840119472
9	53754 8074 23 4791 3301.20425588399 4619.649644211898 190 0 0.041950113378685 6.8195711667654 0.25201915008695
10	61828 1769 24 4281 3301.20425588399 4510.589294596267 41 0 0.029411764705882 0.57404863544049 0.0091461458993661
11	63597 4222 36 4800 3301.50425588399 4715.565359739901 99 0 0.16438356164384 4.1448982715683 0.3185979114477
12	67819 7567 41 4803 3301.80425588399 4715.565359739901 174 0 0.057142857142857 7.2044384937185 0.30793957024082
13	75386 2046 44 4806 3301.80425588399 4715.565359739901 48 0 0.024 0.7070244767793 0.011723768498593
14	77432 3779 56 4813 3302.10425588399 4715.665359739901 88 0 0.067415730337079 2.1632834901052 0.064834117161474
15	81211 8331 61 4802 3302.40425588399 4715.565359739901 192 0 0.065843621399177 8.4146779767716 0.38048779845571
16	89542 1556 64 4805 3302.40425588399 4715.565359739901 36 0 0.021840873634945 0.43999499390251 0.006270053035759
17	91098 5327 76 4460 3302.70425588399 4607.749644211898 125 0 0.23837209302326 10.562859288877 1.5054932976598
18	96425 2976 86 4798 3303.30425588399 4715.465359739901 71 0.014456742715157 0.1375 3.757583068382 0.32871909133014
19	99401 4694 89 4485 3303.40425588399 4608.549644211898 108 0 0.034883720930233 2.5446402379149 0.064884426035264
20	104095 7821 111 4779 3304.30425588399 4619.149644211898 181 0 0.079545454545455 7.3781891417498 0.33064183954257
21	111916 6817 112 4826 3304.30425588399 4716.065359739901 157 0 0.038610038610039 4.1943580234987 0.11673281517077
22	118733 2235 114 4552 3304.30425588399 4610.949644211898 52 0 0.027656477438137 0.82316176452924 0.014503714544971
23	120968 2173 115 4804 3304.30425588399 4715.565359739901 51 0 0.033898305084746 0.89444380650683 0.018222232090018
24	123141 8239 160 4566 3305.90425588399 4611.949644211898 189 0 0.040875210387112 5.5636682343896 0.1756742752634
25	131380 6289 202 4818 3404.592481372552 4716.065359739901 146 0 0.054098360655738 5.5973561811053 0.22548783396273
26	137669 4073 203 4562 3404.692481372552 4611.549644211898 94 0 0.024318349299926 1.7694065961623 0.034968582721466
27	141742 6034 204 4763 3404.792481372552 4618.749644211898 138 0.0053763440860215 0.040485829959514 3.9583955595257 0.11616386538941
28	147776 6647 207 4745 3404.992481372552 4618.149644211898 152 0 0.031684522452701 3.9495065819988 0.10675320611348
29	154423 3693 300 4708 3408.692481372552 4616.949644211898 85 0 0.035483870967742 1.8366594834615 0.043046767907873
30	158116 5366 308 4723 3408.992481372552 4617.549644211898 123 0 0.036474164133739 3.275071126177 0.091100849034264
31	163482 8908 313 4778 3409.292481372552 4619.149644211898 204 0 0.042604116802298 6.7903946640715 0.23672665525263
32	172390 5595 317 4695 3409.292481372552 4616.549644211898 128 0 0.031368493622889 3.1575996170174 0.082453623228489
33	177985 4147 529 4711 3417.692481372552 4616.949644211898 95 0 0.03425985778927 1.9852436182332 0.045868794623206
34	182132 3999 626 4702 3517.874876634386 4616.849644211898 92 0 0.027830487033523 1.8567440186425 0.040024619028502
35	186131 6244 970 4788 3631.501699286759 4619.449644211898 143 0 0.02984693877551 3.2399481510329 0.079163725149192
36	192375 1994 1367 4548 3715.057842586373 4610.849644211898 45 0 0.013257575757576 0.37803907663005 0.0035373136150262
37	194369 2027 1716 4820 3801.512308536649 4716.065359739901 46 0 0.014608859566447 0.42979851084507 0.0046752358290124
38	196396 1683 2072 4514 3920.403142579418 4609.649644211898 38 0 0.010416666666667 0.25738962698525 0.0020501619179078
39	198079 4847 2492 4821 4020.408922159117 4716.065359739901 110 0 0.023194008214545 1.5002766537409 0.024648710833887
40	202926 1231 2756 4261 4138.452218691418 4510.089294596267 28 0 0.0078125 0.13164920211785 0.00075599094015413
41	204157 1822 3184 4819 4206.417091726781 4716.065359739901 41 0 0.008622754491018 0.22262181428347 0.0014484991797639
42	205979 1284 3490 4516 4316.052395570615 4609.649644211898 29 0 0.0066512434933488 0.11754067306343 0.0005902091761972
43	207263 1194 3746 4471 4416.140020748925 4608.149644211898 27 0 0.0058111380145278 0.096096567535716 0.00042351173423285
44	208457 1148 4144 4822 4506.189294596267 4716.065359739901 26 0 0.0056070209653827 0.083730422647625 0.00033784990022994
45	209605 1022 4444 4793 4607.349644211898 4619.749644211898 23 0 0.0047446904654315 0.061310104757491 0.00020559085159589
46	210627 28 4794 4794 4715.165359739901 4715.165359739901 1 0 0 0 0
