version 2
run SixteenNodes-0-20130122-16:07:56-8069
attr configname SixteenNodes
attr datetime 20130122-16:07:56
attr experiment SixteenNodes
attr inifile omnetpp.ini
attr iterationvars ""
attr iterationvars2 $repetition=0
attr measurement ""
attr network SimphonyDHTNetwork
attr processid 8069
attr repetition 0
attr replication #0
attr resultdir results
attr runnumber 0
attr seedset 0

vector 0  SimphonyDHTNetwork.members[3]  ""  ETV
vector 1  SimphonyDHTNetwork.members[4]  ""  ETV
vector 2  SimphonyDHTNetwork.members[5]  ""  ETV
vector 3  SimphonyDHTNetwork.members[2]  ""  ETV
vector 4  SimphonyDHTNetwork.members[1]  ""  ETV
vector 5  SimphonyDHTNetwork.members[0]  ""  ETV
vector 6  SimphonyDHTNetwork.members[7]  ""  ETV
vector 7  SimphonyDHTNetwork.members[8]  ""  ETV
vector 8  SimphonyDHTNetwork.members[6]  ""  ETV
vector 9  SimphonyDHTNetwork.members[9]  ""  ETV
vector 10  SimphonyDHTNetwork.members[10]  ""  ETV
vector 11  SimphonyDHTNetwork.members[11]  ""  ETV
vector 12  SimphonyDHTNetwork.members[12]  ""  ETV
vector 13  SimphonyDHTNetwork.members[13]  ""  ETV
vector 14  SimphonyDHTNetwork.members[14]  ""  ETV
vector 15  SimphonyDHTNetwork.members[15]  ""  ETV
0	2	905.610484866703	0
0	5	905.910484866703	1
0	9	906.110484866703	2
0	11	906.310484866703	3
0	12	906.410484866703	3
0	15	906.610484866703	5
0	16	906.610484866703	5
0	22	907.110484866703	6
0	39	908.510484866703	7
0	87	911.110484866703	8
0	90	911.410484866703	9
0	94	911.610484866703	10
0	96	911.810484866703	11
0	97	911.910484866703	11
0	100	912.110484866703	13
0	101	912.110484866703	13
0	106	912.610484866703	14
0	180	1013.070064263933	15
0	189	1013.670064263933	16
0	191	1013.670064263933	17
0	196	1013.870064263933	18
0	197	1013.970064263933	18
0	201	1013.970064263933	19
0	203	1013.970064263933	19
0	206	1014.270064263933	20
0	210	1014.270064263933	21
0	212	1014.470064263933	22
0	213	1014.570064263933	22
0	215	1014.570064263933	24
0	217	1014.770064263933	24
0	225	1015.270064263933	25
0	262	1017.470064263933	26
0	264	1017.470064263933	27
0	267	1017.770064263933	28
0	273	1017.770064263933	29
0	275	1017.970064263933	30
0	276	1018.070064263933	30
0	278	1018.070064263933	32
0	280	1018.270064263933	32
0	285	1018.770064263933	33
0	287	1018.770064263933	34
0	290	1019.070064263933	35
0	307	1019.470064263933	36
0	372	1112.981593006638	37
0	375	1113.281593006638	38
0	441	1116.281593006638	39
0	444	1116.581593006638	40
0	454	1116.581593006638	41
0	456	1116.781593006638	42
0	457	1116.881593006638	42
0	505	1206.751281637216	43
0	508	1207.051281637216	44
0	590	1210.051281637216	45
0	593	1210.351281637216	46
0	649	1307.455191968829	47
0	731	1309.755191968829	48
0	746	1310.055191968829	49
0	802	1311.055191968829	50
0	814	1311.355191968829	51
0	867	1313.155191968829	52
0	870	1313.455191968829	53
0	989	1407.431591391375	54
0	1159	1600.88384669093	55
0	1162	1601.18384669093	56
1	3	905.710484866703	1
1	4	905.810484866703	1
1	7	906.010484866703	3
1	8	906.010484866703	3
1	14	906.510484866703	4
1	40	908.610484866703	5
1	79	910.510484866703	5
1	82	910.810484866703	6
1	86	911.010484866703	7
1	88	911.210484866703	8
1	89	911.310484866703	8
1	92	911.510484866703	10
1	93	911.510484866703	10
1	99	912.010484866703	11
1	107	912.710484866703	12
1	172	1012.470064263933	13
1	175	1012.770064263933	14
1	179	1012.970064263933	15
1	181	1013.170064263933	16
1	182	1013.270064263933	16
1	190	1013.670064263933	17
1	194	1013.670064263933	18
1	198	1013.970064263933	18
1	202	1013.970064263933	19
1	207	1014.270064263933	19
1	255	1016.970064263933	20
1	268	1017.770064263933	21
1	291	1019.070064263933	22
1	362	1112.581593006638	23
1	367	1112.881593006638	24
1	376	1113.281593006638	25
1	431	1115.881593006638	26
1	436	1116.181593006638	27
1	445	1116.581593006638	28
1	471	1205.551281637216	29
1	475	1205.851281637216	30
1	477	1205.851281637216	31
1	481	1205.851281637216	32
1	483	1206.151281637216	32
1	487	1206.151281637216	33
1	489	1206.151281637216	33
1	492	1206.451281637216	34
1	496	1206.451281637216	35
1	498	1206.451281637216	36
1	499	1206.751281637216	36
1	502	1206.751281637216	38
1	503	1206.751281637216	38
1	509	1207.051281637216	39
1	556	1208.851281637216	40
1	558	1208.851281637216	41
1	561	1209.151281637216	42
1	572	1209.451281637216	43
1	575	1209.751281637216	44
1	581	1209.751281637216	45
1	583	1209.751281637216	46
1	584	1210.051281637216	46
1	587	1210.051281637216	48
1	588	1210.051281637216	48
1	594	1210.351281637216	49
1	608	1210.651281637216	50
1	674	1308.555191968829	51
1	698	1309.155191968829	52
1	706	1309.455191968829	53
1	714	1309.455191968829	54
1	716	1309.455191968829	55
1	723	1309.655191968829	55
1	725	1309.755191968829	56
1	728	1309.755191968829	58
1	729	1309.755191968829	58
1	734	1309.955191968829	59
1	742	1309.955191968829	60
1	744	1309.955191968829	61
1	747	1310.055191968829	61
1	756	1310.255191968829	62
1	765	1310.355191968829	63
1	772	1310.555191968829	64
1	786	1310.755191968829	65
1	788	1310.755191968829	66
1	794	1311.055191968829	66
1	798	1311.055191968829	69
1	799	1311.055191968829	69
1	800	1311.055191968829	69
1	815	1311.355191968829	70
1	843	1312.355191968829	71
1	849	1312.655191968829	72
1	856	1312.855191968829	73
1	858	1312.855191968829	74
1	859	1313.155191968829	74
1	863	1313.155191968829	77
1	864	1313.155191968829	77
1	865	1313.155191968829	77
1	871	1313.455191968829	78
1	883	1313.755191968829	79
1	945	1405.931591391375	80
1	948	1406.231591391375	81
1	956	1406.231591391375	82
1	958	1406.231591391375	83
1	959	1406.531591391375	83
1	968	1406.831591391375	84
1	1015	1408.731591391375	85
1	1026	1409.031591391375	86
1	1109	1525.035244220363	87
1	1122	1525.235244220363	88
1	1124	1525.235244220363	89
1	1125	1525.535244220363	89
1	1134	1525.835244220363	90
1	1146	1600.58384669093	92
1	1147	1600.88384669093	92
1	1153	1600.88384669093	97
1	1154	1600.88384669093	97
1	1155	1600.88384669093	97
1	1156	1600.88384669093	97
1	1157	1600.88384669093	97
1	1163	1601.18384669093	98
1	1175	1601.48384669093	99
1	1254	1603.68384669093	99
2	6	905.910484866703	0
2	71	909.910484866703	1
2	74	910.210484866703	2
2	78	910.410484866703	3
2	80	910.610484866703	4
2	81	910.710484866703	4
2	84	910.910484866703	6
2	85	910.910484866703	6
2	91	911.410484866703	7
2	108	912.810484866703	8
2	164	1011.870064263933	9
2	167	1012.170064263933	10
2	171	1012.370064263933	11
2	173	1012.570064263933	12
2	174	1012.670064263933	12
2	177	1012.870064263933	14
2	178	1012.870064263933	14
2	183	1013.370064263933	15
2	247	1016.370064263933	16
2	250	1016.670064263933	17
2	254	1016.870064263933	18
2	256	1017.070064263933	19
2	257	1017.170064263933	19
2	269	1017.770064263933	20
2	292	1019.070064263933	21
2	326	1110.781593006638	22
2	354	1111.981593006638	23
2	359	1112.281593006638	24
2	361	1112.481593006638	25
2	363	1112.681593006638	26
2	364	1112.781593006638	26
2	366	1112.781593006638	29
2	369	1112.981593006638	29
2	370	1112.981593006638	29
2	377	1113.281593006638	30
2	410	1114.781593006638	31
2	423	1115.281593006638	32
2	428	1115.581593006638	33
2	430	1115.781593006638	34
2	432	1115.981593006638	35
2	433	1116.081593006638	35
2	435	1116.081593006638	38
2	438	1116.281593006638	38
2	439	1116.281593006638	38
2	446	1116.581593006638	39
2	459	1116.881593006638	40
2	463	1204.951281637216	41
2	468	1205.251281637216	42
2	470	1205.451281637216	43
2	472	1205.651281637216	44
2	473	1205.751281637216	44
2	476	1205.851281637216	45
2	482	1205.851281637216	46
2	484	1206.151281637216	46
2	488	1206.151281637216	47
2	493	1206.451281637216	47
2	510	1207.051281637216	48
2	562	1209.151281637216	49
2	567	1209.151281637216	50
2	569	1209.151281637216	51
2	570	1209.451281637216	51
2	576	1209.751281637216	52
2	595	1210.351281637216	53
2	655	1307.555191968829	54
2	660	1307.855191968829	55
2	662	1308.055191968829	56
2	664	1308.055191968829	57
2	665	1308.355191968829	57
2	672	1308.555191968829	58
2	678	1308.555191968829	59
2	680	1308.855191968829	59
2	684	1308.855191968829	60
2	688	1308.855191968829	61
2	690	1309.155191968829	61
2	692	1309.155191968829	63
2	696	1309.155191968829	64
2	701	1309.355191968829	64
2	719	1309.655191968829	65
2	760	1310.255191968829	66
2	762	1310.255191968829	67
2	770	1310.555191968829	67
2	773	1310.555191968829	70
2	774	1310.555191968829	70
2	778	1310.655191968829	70
2	784	1310.755191968829	71
2	797	1311.055191968829	72
2	806	1311.255191968829	73
2	844	1312.355191968829	74
2	846	1312.355191968829	75
2	847	1312.655191968829	75
2	851	1312.655191968829	79
2	852	1312.655191968829	79
2	853	1312.655191968829	79
2	855	1312.855191968829	79
2	862	1313.155191968829	80
2	884	1313.755191968829	81
2	902	1404.431591391375	81
2	995	1407.531591391375	82
2	1000	1407.831591391375	83
2	1002	1408.031591391375	84
2	1004	1408.031591391375	85
2	1005	1408.331591391375	85
2	1016	1408.731591391375	86
2	1021	1408.731591391375	87
2	1023	1408.731591391375	88
2	1024	1409.031591391375	88
2	1030	1409.031591391375	94
2	1031	1409.031591391375	94
2	1032	1409.031591391375	94
2	1033	1409.031591391375	94
2	1034	1409.031591391375	94
2	1036	1409.231591391375	94
2	1041	1409.531591391375	95
2	1048	1522.535244220363	96
2	1085	1524.135244220363	97
2	1089	1524.135244220363	98
2	1091	1524.135244220363	99
2	1092	1524.435244220363	99
2	1100	1524.735244220363	100
2	1104	1524.735244220363	101
2	1106	1524.735244220363	102
2	1107	1525.035244220363	102
2	1114	1525.035244220363	109
2	1115	1525.035244220363	109
2	1116	1525.035244220363	109
2	1117	1525.035244220363	109
2	1118	1525.035244220363	109
2	1119	1525.035244220363	109
2	1121	1525.235244220363	109
2	1126	1525.535244220363	110
2	1133	1525.835244220363	111
2	1150	1600.88384669093	112
2	1253	1603.68384669093	113
2	1267	1603.98384669093	114
3	10	906.210484866703	0
3	13	906.510484866703	1
3	17	906.710484866703	2
3	19	906.910484866703	3
3	20	907.010484866703	3
3	23	907.210484866703	5
3	24	907.210484866703	5
3	30	907.710484866703	6
3	38	908.410484866703	7
3	95	911.710484866703	8
3	98	912.010484866703	9
3	102	912.210484866703	10
3	104	912.410484866703	11
3	105	912.510484866703	11
3	120	913.610484866703	12
3	124	913.610484866703	13
3	126	913.810484866703	14
3	127	913.910484866703	14
3	134	1010.170064263933	15
3	151	1011.170064263933	16
3	195	1013.770064263933	17
3	211	1014.370064263933	18
3	216	1014.670064263933	19
3	218	1014.870064263933	20
3	220	1015.070064263933	21
3	221	1015.170064263933	21
3	223	1015.170064263933	24
3	226	1015.370064263933	24
3	227	1015.370064263933	24
3	234	1015.670064263933	25
3	261	1017.370064263933	26
3	274	1017.870064263933	27
3	279	1018.170064263933	28
3	281	1018.370064263933	29
3	283	1018.570064263933	30
3	284	1018.670064263933	30
3	293	1019.070064263933	31
3	298	1019.070064263933	32
3	300	1019.270064263933	33
3	301	1019.370064263933	33
3	304	1019.370064263933	37
3	305	1019.370064263933	37
3	308	1019.570064263933	37
3	309	1019.570064263933	37
3	314	1020.070064263933	38
3	378	1113.281593006638	39
3	392	1113.681593006638	40
3	447	1116.581593006638	41
3	455	1116.681593006638	42
3	511	1207.051281637216	43
3	525	1207.451281637216	44
3	542	1208.451281637216	45
3	596	1210.351281637216	46
3	619	1306.155191968829	47
3	636	1307.155191968829	48
3	748	1310.055191968829	49
3	754	1310.055191968829	50
3	757	1310.255191968829	51
3	763	1310.355191968829	51
3	779	1310.655191968829	52
3	783	1310.655191968829	53
3	789	1310.855191968829	54
3	790	1310.955191968829	54
3	807	1311.255191968829	55
3	811	1311.255191968829	56
3	816	1311.355191968829	57
3	823	1311.455191968829	58
3	825	1311.555191968829	58
3	834	1311.755191968829	59
3	872	1313.455191968829	60
3	878	1313.455191968829	61
3	880	1313.655191968829	62
3	881	1313.755191968829	62
3	894	1403.931591391375	63
3	1028	1409.031591391375	64
3	1111	1525.035244220363	65
3	1164	1601.18384669093	66
3	1205	1602.18384669093	67
3	1244	1603.28384669093	68
3	1277	1604.28384669093	69
3	1300	1604.98384669093	70
4	18	906.810484866703	0
4	21	907.110484866703	1
4	25	907.310484866703	2
4	27	907.510484866703	3
4	28	907.610484866703	3
4	31	907.810484866703	5
4	32	907.810484866703	5
4	37	908.310484866703	6
4	103	912.310484866703	7
4	125	913.710484866703	8
4	131	1009.970064263933	10
4	132	1010.070064263933	10
4	135	1010.270064263933	12
4	136	1010.270064263933	12
4	143	1010.770064263933	13
4	188	1013.670064263933	14
4	219	1014.970064263933	14
4	224	1015.270064263933	15
4	282	1018.470064263933	16
4	299	1019.170064263933	17
4	306	1019.470064263933	18
4	310	1019.670064263933	19
4	312	1019.870064263933	20
4	313	1019.970064263933	20
4	379	1113.281593006638	21
4	385	1113.281593006638	22
4	387	1113.481593006638	23
4	388	1113.581593006638	23
4	390	1113.581593006638	26
4	393	1113.781593006638	26
4	394	1113.781593006638	26
4	401	1114.281593006638	27
4	408	1114.781593006638	28
4	448	1116.581593006638	29
4	512	1207.051281637216	30
4	518	1207.051281637216	31
4	520	1207.251281637216	32
4	521	1207.351281637216	32
4	523	1207.351281637216	35
4	526	1207.551281637216	35
4	527	1207.551281637216	35
4	534	1208.051281637216	36
4	554	1208.851281637216	37
4	597	1210.351281637216	38
4	603	1210.351281637216	39
4	605	1210.551281637216	40
4	606	1210.651281637216	40
4	612	1305.955191968829	42
4	613	1306.055191968829	42
4	616	1306.055191968829	46
4	617	1306.055191968829	46
4	620	1306.255191968829	46
4	621	1306.255191968829	46
4	628	1306.755191968829	47
4	670	1308.555191968829	48
4	709	1309.455191968829	48
4	737	1309.955191968829	49
4	749	1310.055191968829	50
4	755	1310.155191968829	51
4	785	1310.755191968829	52
4	813	1311.355191968829	53
4	817	1311.355191968829	54
4	822	1311.355191968829	55
4	826	1311.555191968829	56
4	828	1311.655191968829	56
4	831	1311.655191968829	60
4	832	1311.655191968829	60
4	835	1311.855191968829	60
4	836	1311.855191968829	60
4	841	1312.355191968829	61
4	873	1313.455191968829	62
4	879	1313.555191968829	63
4	887	1403.731591391375	65
4	888	1403.831591391375	65
4	891	1403.831591391375	69
4	892	1403.831591391375	69
4	895	1404.031591391375	69
4	896	1404.031591391375	69
4	905	1404.531591391375	70
4	912	1405.031591391375	71
4	951	1406.231591391375	71
4	1051	1522.635244220363	72
4	1053	1522.835244220363	73
4	1055	1523.035244220363	74
4	1056	1523.135244220363	74
4	1059	1523.235244220363	75
4	1065	1523.235244220363	76
4	1067	1523.535244220363	76
4	1071	1523.535244220363	77
4	1076	1523.835244220363	77
4	1099	1524.735244220363	78
4	1132	1525.835244220363	79
4	1139	1525.835244220363	80
4	1141	1525.835244220363	81
4	1142	1526.135244220363	81
4	1165	1601.18384669093	82
4	1170	1601.18384669093	83
4	1172	1601.18384669093	84
4	1173	1601.48384669093	84
4	1177	1601.48384669093	85
4	1183	1601.48384669093	86
4	1185	1601.78384669093	86
4	1189	1601.78384669093	87
4	1193	1601.78384669093	88
4	1195	1602.08384669093	88
4	1197	1602.08384669093	90
4	1201	1602.08384669093	91
4	1206	1602.28384669093	91
4	1216	1602.58384669093	92
4	1227	1602.88384669093	93
4	1229	1602.88384669093	94
4	1232	1602.98384669093	94
4	1235	1602.98384669093	95
4	1237	1602.98384669093	96
4	1238	1603.18384669093	96
4	1241	1603.18384669093	99
4	1242	1603.18384669093	99
4	1243	1603.28384669093	99
4	1246	1603.38384669093	100
4	1255	1603.68384669093	101
4	1290	1604.58384669093	102
4	1292	1604.58384669093	103
4	1293	1604.88384669093	103
4	1297	1604.88384669093	107
4	1298	1604.88384669093	107
4	1299	1604.88384669093	107
4	1301	1605.08384669093	107
4	1306	1605.38384669093	108
5	26	907.410484866703	0
5	29	907.710484866703	1
5	33	907.910484866703	2
5	35	908.110484866703	3
5	36	908.210484866703	3
5	42	908.610484866703	4
5	46	908.610484866703	5
5	50	908.910484866703	5
5	54	908.910484866703	6
5	59	909.210484866703	6
5	119	913.610484866703	7
5	130	1009.870064263933	8
5	133	1010.170064263933	9
5	137	1010.370064263933	10
5	139	1010.370064263933	11
5	140	1010.670064263933	11
5	142	1010.670064263933	13
5	144	1010.870064263933	13
5	150	1011.170064263933	14
5	187	1013.570064263933	15
5	233	1015.670064263933	16
5	311	1019.770064263933	17
5	386	1113.381593006638	18
5	391	1113.681593006638	19
5	395	1113.881593006638	20
5	397	1113.881593006638	21
5	398	1114.181593006638	21
5	400	1114.181593006638	23
5	402	1114.381593006638	23
5	407	1114.681593006638	24
5	519	1207.151281637216	25
5	524	1207.451281637216	26
5	528	1207.651281637216	27
5	530	1207.651281637216	28
5	531	1207.951281637216	28
5	533	1207.951281637216	30
5	535	1208.151281637216	30
5	541	1208.451281637216	31
5	553	1208.751281637216	32
5	604	1210.451281637216	33
5	611	1305.855191968829	34
5	618	1306.155191968829	35
5	622	1306.355191968829	36
5	624	1306.355191968829	37
5	625	1306.655191968829	37
5	627	1306.655191968829	39
5	629	1306.855191968829	39
5	635	1307.155191968829	40
5	669	1308.455191968829	41
5	824	1311.455191968829	42
5	833	1311.755191968829	43
5	837	1311.955191968829	44
5	839	1311.955191968829	45
5	840	1312.255191968829	45
5	850	1312.655191968829	46
5	886	1403.631591391375	47
5	893	1403.931591391375	48
5	897	1404.131591391375	49
5	899	1404.131591391375	50
5	900	1404.431591391375	50
5	903	1404.431591391375	53
5	904	1404.431591391375	53
5	906	1404.631591391375	53
5	911	1404.931591391375	54
5	1027	1409.031591391375	55
5	1045	1522.235244220363	57
5	1046	1522.535244220363	57
5	1049	1522.535244220363	60
5	1050	1522.535244220363	60
5	1052	1522.735244220363	60
5	1054	1522.935244220363	61
5	1057	1523.235244220363	62
5	1058	1523.235244220363	62
5	1060	1523.235244220363	63
5	1064	1523.235244220363	64
5	1066	1523.535244220363	64
5	1070	1523.535244220363	65
5	1072	1523.535244220363	65
5	1075	1523.835244220363	66
5	1079	1523.835244220363	67
5	1081	1523.835244220363	68
5	1082	1524.135244220363	68
5	1086	1524.135244220363	71
5	1087	1524.135244220363	71
5	1088	1524.135244220363	71
5	1093	1524.435244220363	72
5	1095	1524.435244220363	73
5	1098	1524.735244220363	74
5	1110	1525.035244220363	75
5	1128	1525.535244220363	76
5	1131	1525.835244220363	77
5	1179	1601.48384669093	78
5	1203	1602.08384669093	79
5	1220	1602.58384669093	80
5	1248	1603.38384669093	81
5	1251	1603.68384669093	82
5	1261	1603.68384669093	83
5	1263	1603.68384669093	84
5	1264	1603.98384669093	84
5	1268	1603.98384669093	87
5	1269	1603.98384669093	87
5	1270	1603.98384669093	87
5	1276	1604.28384669093	88
5	1288	1604.58384669093	89
5	1303	1605.08384669093	90
6	34	908.010484866703	0
6	41	908.610484866703	1
6	43	908.610484866703	2
6	48	908.810484866703	3
6	49	908.910484866703	3
6	53	908.910484866703	4
6	55	908.910484866703	4
6	58	909.210484866703	5
6	62	909.210484866703	6
6	64	909.410484866703	7
6	65	909.510484866703	7
6	67	909.510484866703	9
6	69	909.710484866703	9
6	75	910.210484866703	10
6	110	913.010484866703	11
6	112	913.010484866703	12
6	115	913.310484866703	13
6	118	913.610484866703	14
6	146	1010.870064263933	15
6	149	1011.170064263933	16
6	155	1011.170064263933	17
6	157	1011.370064263933	18
6	158	1011.470064263933	18
6	160	1011.470064263933	20
6	162	1011.670064263933	20
6	168	1012.170064263933	21
6	185	1013.570064263933	22
6	229	1015.370064263933	23
6	232	1015.670064263933	24
6	238	1015.670064263933	25
6	240	1015.870064263933	26
6	241	1015.970064263933	26
6	243	1015.970064263933	28
6	245	1016.170064263933	28
6	251	1016.670064263933	29
6	259	1017.370064263933	30
6	318	1110.581593006638	32
6	319	1110.681593006638	32
6	321	1110.681593006638	32
6	325	1110.681593006638	33
6	329	1110.981593006638	33
6	333	1110.981593006638	34
6	338	1111.281593006638	34
6	341	1111.281593006638	35
6	343	1111.281593006638	36
6	344	1111.581593006638	36
6	350	1111.881593006638	37
6	404	1114.381593006638	38
6	417	1115.181593006638	39
6	537	1208.151281637216	40
6	540	1208.451281637216	41
6	548	1208.451281637216	42
6	550	1208.451281637216	43
6	551	1208.751281637216	43
6	563	1209.151281637216	44
6	577	1209.751281637216	45
6	631	1306.855191968829	46
6	634	1307.155191968829	47
6	647	1307.455191968829	48
6	708	1309.455191968829	49
6	736	1309.955191968829	50
6	908	1404.631591391375	51
6	913	1405.031591391375	52
6	915	1405.031591391375	53
6	919	1405.031591391375	54
6	921	1405.331591391375	54
6	925	1405.331591391375	55
6	927	1405.331591391375	55
6	930	1405.631591391375	56
6	934	1405.631591391375	57
6	936	1405.631591391375	58
6	937	1405.931591391375	58
6	941	1405.931591391375	61
6	942	1405.931591391375	61
6	943	1405.931591391375	61
6	950	1406.231591391375	62
6	961	1406.531591391375	63
6	963	1406.531591391375	64
6	966	1406.831591391375	65
6	972	1406.831591391375	66
6	974	1406.831591391375	67
6	975	1407.131591391375	67
6	979	1407.131591391375	70
6	980	1407.131591391375	70
6	981	1407.131591391375	70
6	987	1407.431591391375	71
6	1008	1408.431591391375	72
6	1010	1408.431591391375	73
6	1013	1408.731591391375	74
6	1284	1604.28384669093	75
7	44	908.610484866703	3
7	45	908.610484866703	4
7	51	908.910484866703	4
7	52	908.910484866703	4
7	56	908.910484866703	7
7	57	909.210484866703	7
7	60	909.210484866703	9
7	61	909.210484866703	9
7	66	909.510484866703	10
7	111	913.010484866703	11
7	113	913.010484866703	12
7	114	913.310484866703	12
7	116	913.310484866703	13
7	117	913.610484866703	13
7	121	913.610484866703	16
7	122	913.610484866703	16
7	123	913.610484866703	16
7	128	913.910484866703	17
7	138	1010.370064263933	17
7	141	1010.670064263933	18
7	145	1010.870064263933	19
7	147	1010.870064263933	20
7	148	1011.170064263933	20
7	152	1011.170064263933	23
7	153	1011.170064263933	23
7	154	1011.170064263933	23
7	159	1011.470064263933	24
7	186	1013.570064263933	25
7	222	1015.170064263933	26
7	228	1015.370064263933	27
7	230	1015.370064263933	28
7	231	1015.670064263933	28
7	235	1015.670064263933	31
7	236	1015.670064263933	31
7	237	1015.670064263933	31
7	242	1015.970064263933	32
7	260	1017.370064263933	33
7	302	1019.370064263933	34
7	396	1113.881593006638	35
7	399	1114.181593006638	36
7	403	1114.381593006638	37
7	405	1114.381593006638	38
7	406	1114.681593006638	38
7	418	1115.181593006638	39
7	529	1207.651281637216	40
7	532	1207.951281637216	41
7	536	1208.151281637216	42
7	538	1208.151281637216	43
7	539	1208.451281637216	43
7	544	1208.451281637216	47
7	545	1208.451281637216	47
7	546	1208.451281637216	47
7	547	1208.451281637216	47
7	552	1208.751281637216	48
7	623	1306.355191968829	49
7	626	1306.655191968829	50
7	630	1306.855191968829	51
7	632	1306.855191968829	52
7	633	1307.155191968829	52
7	638	1307.155191968829	56
7	639	1307.155191968829	56
7	640	1307.155191968829	56
7	641	1307.155191968829	56
7	648	1307.455191968829	57
7	668	1308.455191968829	58
7	838	1311.955191968829	59
7	898	1404.131591391375	60
7	901	1404.431591391375	61
7	907	1404.631591391375	62
7	909	1404.631591391375	63
7	910	1404.931591391375	63
7	914	1405.031591391375	64
7	920	1405.031591391375	65
7	922	1405.331591391375	65
7	926	1405.331591391375	66
7	931	1405.631591391375	66
7	967	1406.831591391375	67
7	988	1407.431591391375	68
7	1014	1408.731591391375	69
7	1044	1522.235244220363	70
7	1047	1522.535244220363	71
7	1061	1523.235244220363	72
7	1080	1523.835244220363	73
7	1083	1524.135244220363	74
7	1262	1603.68384669093	75
7	1265	1603.98384669093	76
7	1271	1603.98384669093	77
7	1273	1603.98384669093	78
7	1274	1604.28384669093	78
7	1279	1604.28384669093	82
7	1280	1604.28384669093	82
7	1281	1604.28384669093	82
7	1282	1604.28384669093	82
7	1287	1604.58384669093	83
8	47	908.710484866703	0
8	63	909.310484866703	1
8	68	909.610484866703	2
8	70	909.810484866703	3
8	72	910.010484866703	4
8	73	910.110484866703	4
8	76	910.310484866703	6
8	77	910.310484866703	6
8	83	910.810484866703	7
8	109	912.910484866703	8
8	156	1011.270064263933	9
8	161	1011.570064263933	10
8	163	1011.770064263933	11
8	165	1011.970064263933	12
8	166	1012.070064263933	12
8	169	1012.270064263933	14
8	170	1012.270064263933	14
8	176	1012.770064263933	15
8	184	1013.470064263933	16
8	239	1015.770064263933	17
8	244	1016.070064263933	18
8	246	1016.270064263933	19
8	248	1016.470064263933	20
8	249	1016.570064263933	20
8	252	1016.770064263933	22
8	253	1016.770064263933	22
8	258	1017.270064263933	23
8	317	1110.481593006638	24
8	320	1110.681593006638	25
8	322	1110.681593006638	26
8	327	1110.881593006638	27
8	328	1110.981593006638	27
8	332	1110.981593006638	28
8	334	1110.981593006638	28
8	337	1111.281593006638	29
8	346	1111.581593006638	30
8	349	1111.881593006638	31
8	353	1111.881593006638	32
8	355	1112.081593006638	33
8	356	1112.181593006638	33
8	358	1112.181593006638	35
8	360	1112.381593006638	35
8	368	1112.881593006638	36
8	411	1114.881593006638	37
8	413	1114.881593006638	38
8	416	1115.181593006638	39
8	422	1115.181593006638	40
8	424	1115.381593006638	41
8	425	1115.481593006638	41
8	427	1115.481593006638	43
8	429	1115.681593006638	43
8	437	1116.181593006638	44
8	460	1116.981593006638	45
8	464	1205.051281637216	47
8	465	1205.151281637216	47
8	467	1205.151281637216	49
8	469	1205.351281637216	49
8	474	1205.851281637216	50
8	643	1307.155191968829	50
8	646	1307.455191968829	51
8	654	1307.455191968829	52
8	656	1307.655191968829	53
8	657	1307.755191968829	53
8	659	1307.755191968829	55
8	661	1307.955191968829	55
8	666	1308.455191968829	56
8	700	1309.255191968829	57
8	776	1310.655191968829	58
8	854	1312.755191968829	59
8	983	1407.131591391375	60
8	986	1407.431591391375	61
8	994	1407.431591391375	62
8	996	1407.631591391375	63
8	997	1407.731591391375	63
8	999	1407.731591391375	65
8	1001	1407.931591391375	65
8	1006	1408.431591391375	66
8	1035	1409.131591391375	67
8	1120	1525.135244220363	68
9	129	1009.770064263933	0
9	192	1013.670064263933	3
9	193	1013.670064263933	4
9	199	1013.970064263933	4
9	200	1013.970064263933	4
9	204	1013.970064263933	7
9	205	1014.270064263933	7
9	208	1014.270064263933	9
9	209	1014.270064263933	9
9	214	1014.570064263933	10
9	263	1017.470064263933	11
9	265	1017.470064263933	12
9	266	1017.770064263933	12
9	270	1017.770064263933	15
9	271	1017.770064263933	15
9	272	1017.770064263933	15
9	277	1018.070064263933	16
9	286	1018.770064263933	17
9	288	1018.770064263933	18
9	289	1019.070064263933	18
9	294	1019.070064263933	22
9	295	1019.070064263933	22
9	296	1019.070064263933	22
9	297	1019.070064263933	22
9	303	1019.370064263933	23
9	315	1020.070064263933	24
9	365	1112.781593006638	24
9	371	1112.981593006638	25
9	373	1112.981593006638	26
9	374	1113.281593006638	26
9	380	1113.281593006638	31
9	381	1113.281593006638	31
9	382	1113.281593006638	31
9	383	1113.281593006638	31
9	384	1113.281593006638	31
9	389	1113.581593006638	32
9	409	1114.781593006638	33
9	434	1116.081593006638	34
9	440	1116.281593006638	35
9	442	1116.281593006638	36
9	443	1116.581593006638	36
9	449	1116.581593006638	41
9	450	1116.581593006638	41
9	451	1116.581593006638	41
9	452	1116.581593006638	41
9	453	1116.581593006638	41
9	458	1116.881593006638	42
9	478	1205.851281637216	43
9	497	1206.451281637216	44
9	500	1206.751281637216	45
9	504	1206.751281637216	46
9	506	1206.751281637216	47
9	507	1207.051281637216	47
9	513	1207.051281637216	52
9	514	1207.051281637216	52
9	515	1207.051281637216	52
9	516	1207.051281637216	52
9	517	1207.051281637216	52
9	522	1207.351281637216	53
9	555	1208.851281637216	54
9	582	1209.751281637216	55
9	585	1210.051281637216	56
9	589	1210.051281637216	57
9	591	1210.051281637216	58
9	592	1210.351281637216	58
9	598	1210.351281637216	63
9	599	1210.351281637216	63
9	600	1210.351281637216	63
9	601	1210.351281637216	63
9	602	1210.351281637216	63
9	607	1210.651281637216	64
9	614	1306.055191968829	65
9	715	1309.455191968829	66
9	726	1309.755191968829	67
9	730	1309.755191968829	68
9	732	1309.755191968829	69
9	743	1309.955191968829	69
9	745	1310.055191968829	70
9	750	1310.055191968829	74
9	751	1310.055191968829	74
9	752	1310.055191968829	74
9	753	1310.055191968829	74
9	764	1310.355191968829	75
9	787	1310.755191968829	76
9	795	1311.055191968829	77
9	801	1311.055191968829	78
9	803	1311.055191968829	79
9	812	1311.355191968829	79
9	818	1311.355191968829	83
9	819	1311.355191968829	83
9	820	1311.355191968829	83
9	821	1311.355191968829	83
9	829	1311.655191968829	84
9	842	1312.355191968829	85
9	857	1312.855191968829	86
9	860	1313.155191968829	87
9	866	1313.155191968829	88
9	868	1313.155191968829	89
9	869	1313.455191968829	89
9	874	1313.455191968829	93
9	875	1313.455191968829	93
9	876	1313.455191968829	93
9	877	1313.455191968829	93
9	882	1313.755191968829	94
9	889	1403.831591391375	95
9	957	1406.231591391375	96
9	1123	1525.235244220363	97
9	1145	1600.58384669093	98
9	1148	1600.88384669093	99
9	1158	1600.88384669093	100
9	1160	1600.88384669093	101
9	1161	1601.18384669093	101
9	1166	1601.18384669093	105
9	1167	1601.18384669093	105
9	1168	1601.18384669093	105
9	1169	1601.18384669093	105
9	1174	1601.48384669093	106
10	316	1110.381593006638	0
10	323	1110.681593006638	3
10	324	1110.681593006638	4
10	330	1110.981593006638	4
10	331	1110.981593006638	4
10	335	1110.981593006638	7
10	336	1111.281593006638	7
10	339	1111.281593006638	9
10	340	1111.281593006638	9
10	342	1111.281593006638	10
10	345	1111.581593006638	11
10	347	1111.581593006638	12
10	348	1111.881593006638	12
10	351	1111.881593006638	14
10	352	1111.881593006638	14
10	357	1112.181593006638	15
10	412	1114.881593006638	16
10	414	1114.881593006638	17
10	415	1115.181593006638	17
10	419	1115.181593006638	20
10	420	1115.181593006638	20
10	421	1115.181593006638	20
10	426	1115.481593006638	21
10	461	1116.981593006638	22
10	466	1205.151281637216	22
10	543	1208.451281637216	23
10	549	1208.451281637216	24
10	637	1307.155191968829	25
10	642	1307.155191968829	26
10	644	1307.155191968829	27
10	645	1307.455191968829	27
10	650	1307.455191968829	31
10	651	1307.455191968829	31
10	652	1307.455191968829	31
10	653	1307.455191968829	31
10	658	1307.755191968829	32
10	667	1308.455191968829	33
10	916	1405.031591391375	34
10	935	1405.631591391375	35
10	938	1405.931591391375	36
10	973	1406.831591391375	37
10	976	1407.131591391375	38
10	982	1407.131591391375	39
10	984	1407.131591391375	40
10	985	1407.431591391375	40
10	990	1407.431591391375	44
10	991	1407.431591391375	44
10	992	1407.431591391375	44
10	993	1407.431591391375	44
10	998	1407.731591391375	45
10	1007	1408.431591391375	46
10	1278	1604.28384669093	47
11	462	1204.851281637216	0
11	479	1205.851281637216	3
11	480	1205.851281637216	4
11	485	1206.151281637216	4
11	486	1206.151281637216	4
11	490	1206.151281637216	7
11	491	1206.451281637216	7
11	494	1206.451281637216	9
11	495	1206.451281637216	9
11	501	1206.751281637216	10
11	557	1208.851281637216	11
11	559	1208.851281637216	12
11	560	1209.151281637216	12