file 89389 1357818015                                           
version 2
run smallLooselyConnectedNetwork-0-20130110-12:26:03-3558
attr configname smallLooselyConnectedNetwork
attr datetime 20130110-12:26:03
attr experiment smallLooselyConnectedNetwork
attr inifile omnetpp.ini
attr iterationvars ""
attr iterationvars2 $repetition=0
attr measurement ""
attr network SimphonyDHTNetwork
attr processid 3558
attr repetition 0
attr replication #0
attr resultdir results
attr runnumber 0
attr seedset 0
vector 0  SimphonyDHTNetwork.members[3]  ""  ETV
0	1233 9605 2 2111 905.610484866703 3038.193086806736 234 0 0.38461538461538 28.086388965971 3.815638209287
vector 1  SimphonyDHTNetwork.members[4]  ""  ETV
1	10838 6766 3 2109 905.710484866703 3038.193086806736 164 0.058080808080808 0.5 16.66242923433 2.5258421902076
vector 2  SimphonyDHTNetwork.members[5]  ""  ETV
2	17604 8478 6 2090 905.910484866703 3037.893086806736 202 0 0.11811023622047 17.23048619409 1.5104602461194
vector 3  SimphonyDHTNetwork.members[2]  ""  ETV
3	26082 10282 10 2108 906.210484866703 3038.193086806736 252 0 0.25 30.762477955268 3.8517892985434
vector 4  SimphonyDHTNetwork.members[1]  ""  ETV
4	36364 6724 18 2107 906.810484866703 3038.093086806736 161 0 0.19354838709677 11.821614911739 0.95093559483162
vector 5  SimphonyDHTNetwork.members[0]  ""  ETV
5	43088 3233 26 2106 907.410484866703 3038.093086806736 79 0 0.12765957446809 3.7196699616701 0.21720136787013
vector 6  SimphonyDHTNetwork.members[7]  ""  ETV
6	46321 4169 34 1994 908.010484866703 3034.109267993963 101 0 0.16666666666667 6.844902138453 0.57218702588121
vector 7  SimphonyDHTNetwork.members[8]  ""  ETV
7	50490 5303 44 2095 908.610484866703 3037.893086806736 128 0.044363636363636 0.1864406779661 9.6497884967826 0.84514762318253
vector 8  SimphonyDHTNetwork.members[6]  ""  ETV
8	55793 5242 47 2091 908.710484866703 3037.893086806736 126 0 0.1171875 7.5689019352975 0.49199257632468
vector 9  SimphonyDHTNetwork.members[9]  ""  ETV
9	61035 5150 129 2071 1009.770064263933 3037.593086806736 124 0 0.12052117263844 10.453852363981 0.94702910142013
vector 10  SimphonyDHTNetwork.members[10]  ""  ETV
10	66185 3353 214 1407 1110.381593006638 2218.77592153564 79 0 0.098976109215017 4.8954580729729 0.32920991647645
vector 11  SimphonyDHTNetwork.members[11]  ""  ETV
11	69538 3587 312 1480 1204.851281637216 2422.934974279965 84 0 0.067164179104478 4.3274234750293 0.24213676857319
vector 12  SimphonyDHTNetwork.members[12]  ""  ETV
12	73125 2660 459 1572 1305.755191968829 2606.666802230071 62 0 0.044871794871795 2.0058115714604 0.070879118895637
vector 13  SimphonyDHTNetwork.members[13]  ""  ETV
13	75785 4109 546 1769 1403.531591391375 2808.124072763927 95 0 0.063213345039508 4.1229622811394 0.20152982045196
vector 14  SimphonyDHTNetwork.members[14]  ""  ETV
14	79894 4766 739 2056 1522.235244220363 3037.293086806736 110 0 0.054441260744986 3.8945924472057 0.15558573907754
vector 15  SimphonyDHTNetwork.members[15]  ""  ETV
15	84660 4729 890 2110 1600.58384669093 3038.193086806736 109 0 0.05247641509434 4.1271742871043 0.18068919422315
