version 2
run smallLooselyConnectedNetwork-0-20130110-12:26:03-3558
attr configname smallLooselyConnectedNetwork
attr datetime 20130110-12:26:03
attr experiment smallLooselyConnectedNetwork
attr inifile omnetpp.ini
attr iterationvars ""
attr iterationvars2 $repetition=0
attr measurement ""
attr network SimphonyDHTNetwork
attr processid 3558
attr repetition 0
attr replication #0
attr resultdir results
attr runnumber 0
attr seedset 0

vector 0  SimphonyDHTNetwork.members[3]  ""  ETV
vector 1  SimphonyDHTNetwork.members[4]  ""  ETV
vector 2  SimphonyDHTNetwork.members[5]  ""  ETV
vector 3  SimphonyDHTNetwork.members[2]  ""  ETV
vector 4  SimphonyDHTNetwork.members[1]  ""  ETV
vector 5  SimphonyDHTNetwork.members[0]  ""  ETV
vector 6  SimphonyDHTNetwork.members[7]  ""  ETV
vector 7  SimphonyDHTNetwork.members[8]  ""  ETV
vector 8  SimphonyDHTNetwork.members[6]  ""  ETV
vector 9  SimphonyDHTNetwork.members[9]  ""  ETV
vector 10  SimphonyDHTNetwork.members[10]  ""  ETV
vector 11  SimphonyDHTNetwork.members[11]  ""  ETV
vector 12  SimphonyDHTNetwork.members[12]  ""  ETV
vector 13  SimphonyDHTNetwork.members[13]  ""  ETV
vector 14  SimphonyDHTNetwork.members[14]  ""  ETV
vector 15  SimphonyDHTNetwork.members[15]  ""  ETV
0	2	905.610484866703	0
0	5	905.910484866703	0.25
0	9	906.110484866703	0.28571428571429
0	11	906.310484866703	0.33333333333333
0	12	906.410484866703	0.33333333333333
0	15	906.610484866703	0.38461538461538
0	16	906.610484866703	0.38461538461538
0	22	907.110484866703	0.31578947368421
0	39	908.510484866703	0.21212121212121
0	90	911.410484866703	0.1038961038961
0	93	911.710484866703	0.1125
0	97	911.910484866703	0.12048192771084
0	99	912.110484866703	0.12941176470588
0	100	912.210484866703	0.12941176470588
0	103	912.410484866703	0.14606741573034
0	104	912.410484866703	0.14606741573034
0	109	912.910484866703	0.1505376344086
0	146	1011.070064263933	0.12
0	151	1011.470064263933	0.12213740458015
0	153	1011.470064263933	0.12781954887218
0	158	1011.670064263933	0.13235294117647
0	159	1011.770064263933	0.13235294117647
0	163	1011.770064263933	0.13475177304965
0	165	1011.770064263933	0.13475177304965
0	168	1012.070064263933	0.13888888888889
0	172	1012.070064263933	0.14285714285714
0	174	1012.270064263933	0.14765100671141
0	175	1012.370064263933	0.14765100671141
0	177	1012.370064263933	0.15789473684211
0	179	1012.570064263933	0.15686274509804
0	184	1013.070064263933	0.15923566878981
0	186	1013.070064263933	0.16352201257862
0	189	1013.370064263933	0.16564417177914
0	195	1013.370064263933	0.16766467065868
0	197	1013.570064263933	0.17159763313609
0	198	1013.670064263933	0.17159763313609
0	200	1013.670064263933	0.17543859649123
0	203	1013.970064263933	0.17714285714286
0	209	1013.970064263933	0.17877094972067
0	211	1014.170064263933	0.18232044198895
0	212	1014.270064263933	0.18232044198895
0	269	1112.881593006638	0.14847161572052
0	272	1113.181593006638	0.15021459227468
0	287	1113.581593006638	0.14634146341463
0	339	1205.951281637216	0.12758620689655
0	345	1206.251281637216	0.12794612794613
0	347	1206.251281637216	0.1304347826087
0	352	1206.451281637216	0.13245033112583
0	353	1206.551281637216	0.13245033112583
0	357	1206.551281637216	0.13355048859935
0	359	1206.551281637216	0.13355048859935
0	362	1206.851281637216	0.13548387096774
0	366	1206.851281637216	0.13738019169329
0	368	1207.051281637216	0.13968253968254
0	369	1207.151281637216	0.13968253968254
0	371	1207.151281637216	0.14465408805031
0	373	1207.351281637216	0.14420062695925
0	383	1207.851281637216	0.14285714285714
0	420	1210.051281637216	0.13296398891967
0	422	1210.051281637216	0.13498622589532
0	425	1210.351281637216	0.13623978201635
0	436	1210.651281637216	0.136
0	439	1210.951281637216	0.13720316622691
0	445	1210.951281637216	0.13838120104439
0	447	1211.151281637216	0.14025974025974
0	448	1211.251281637216	0.14025974025974
0	450	1211.251281637216	0.14432989690722
0	452	1211.451281637216	0.1439588688946
0	457	1211.951281637216	0.14503816793893
0	548	1403.731591391375	0.12553191489362
0	549	1403.831591391375	0.12553191489362
0	551	1403.831591391375	0.12896405919662
0	553	1404.031591391375	0.12869198312236
0	567	1404.531591391375	0.12704918032787
0	595	1406.031591391375	0.123046875
0	687	1408.831591391375	0.10588235294118
0	721	1409.831591391375	0.1024
0	724	1410.131591391375	0.1031746031746
0	732	1410.131591391375	0.10393700787402
0	734	1410.331591391375	0.10518053375196
0	735	1410.431591391375	0.10518053375196
0	750	1522.535244220363	0.10461538461538
0	753	1522.835244220363	0.10534351145038
0	774	1523.235244220363	0.10401188707281
0	834	1525.135244220363	0.097393689986283
0	840	1525.135244220363	0.098495212038304
0	842	1525.335244220363	0.099590723055935
0	843	1525.435244220363	0.099590723055935
0	852	1525.735244220363	0.099596231493943
0	856	1525.735244220363	0.1006711409396
0	858	1525.935244220363	0.10174029451138
0	859	1526.035244220363	0.10174029451138
0	863	1526.035244220363	0.10610079575597
0	864	1526.035244220363	0.10610079575597
0	865	1526.035244220363	0.10610079575597
0	867	1526.235244220363	0.10596026490066
0	872	1526.735244220363	0.10671936758893
0	879	1527.035244220363	0.10677083333333
0	904	1601.18384669093	0.10519645120406
0	978	1603.28384669093	0.098591549295775
0	981	1603.58384669093	0.099183197199533
0	989	1603.58384669093	0.099767981438515
0	991	1603.78384669093	0.10069444444444
0	992	1603.88384669093	0.10069444444444
0	1004	1604.18384669093	0.10034207525656
0	1018	1604.78384669093	0.10011248593926
0	1076	1810.746505916187	0.095948827292111
0	1089	1810.946505916187	0.095789473684211
0	1094	1811.146505916187	0.096133751306165
0	1104	1811.246505916187	0.096373056994819
0	1110	1811.246505916187	0.097007223942208
0	1113	1811.446505916187	0.097736625514403
0	1118	1811.546505916187	0.097435897435897
0	1122	1811.546505916187	0.10081466395112
0	1123	1811.546505916187	0.10081466395112
0	1124	1811.546505916187	0.10081466395112
0	1127	1811.746505916187	0.10040567951318
0	1132	1811.846505916187	0.10111223458038
0	1142	1812.246505916187	0.101
0	1145	1812.246505916187	0.10169491525424
0	1195	1812.946505916187	0.098470363288719
0	1196	1812.946505916187	0.099331423113658
0	1326	2026.892176267182	0.090439276485788
0	1375	2028.292176267182	0.088039867109635
0	1378	2028.592176267182	0.088576158940397
0	1384	2028.592176267182	0.089108910891089
0	1386	2028.792176267182	0.089785831960461
0	1387	2028.892176267182	0.089785831960461
0	1398	2029.192176267182	0.089722675367047
0	1446	2220.27592153564	0.087539432176656
0	1452	2220.27592153564	0.088119590873328
0	1454	2220.47592153564	0.088766692851532
0	1455	2220.57592153564	0.088766692851532
0	1459	2220.57592153564	0.09140625
0	1460	2220.57592153564	0.09140625
0	1461	2220.57592153564	0.09140625
0	1463	2220.77592153564	0.091334894613583
0	1468	2221.27592153564	0.091828793774319
0	1490	2423.234974279965	0.091327705295472
0	1493	2423.534974279965	0.091883614088821
0	1497	2423.534974279965	0.092436974789916
0	1499	2423.734974279965	0.093058733790999
0	1500	2423.834974279965	0.093058733790999
0	1504	2423.834974279965	0.095599393019727
0	1505	2423.834974279965	0.095599393019727
0	1506	2423.834974279965	0.095599393019727
0	1508	2424.034974279965	0.095526914329037
0	1513	2424.534974279965	0.09599395313681
0	1526	2424.834974279965	0.095880149812734
0	1529	2425.134974279965	0.096412556053812
0	1533	2425.134974279965	0.096942580164057
0	1535	2425.334974279965	0.097542814594192
0	1536	2425.434974279965	0.097542814594192
0	1545	2425.734974279965	0.097488921713442
0	1564	2426.134974279965	0.097151205259313
0	1575	2748.998724607605	0.098039215686275
0	1576	2749.098724607605	0.098039215686275
0	1581	2749.098724607605	0.1010101010101
0	1582	2749.098724607605	0.1010101010101
0	1583	2749.098724607605	0.1010101010101
0	1584	2749.098724607605	0.1010101010101
0	1586	2749.298724607605	0.10093727469358
0	1591	2749.598724607605	0.10136592379583
0	1595	2749.598724607605	0.10093056549749
0	1622	2750.198724607605	0.1000704721635
0	1628	2750.498724607605	0.10035087719298
0	1636	2750.498724607605	0.10062893081761
0	1638	2750.498724607605	0.10118632240056
0	1641	2750.698724607605	0.10174216027875
0	1642	2750.798724607605	0.10174216027875
0	1648	2750.798724607605	0.10387811634349
0	1649	2750.798724607605	0.10387811634349
0	1650	2750.798724607605	0.10387811634349
0	1655	2750.998724607605	0.10366275051831
0	1667	2751.098724607605	0.10356652949246
0	1672	2751.298724607605	0.1037542662116
0	1682	2751.398724607605	0.10386965376782
0	1688	2751.398724607605	0.1042654028436
0	1691	2751.598724607605	0.10472972972973
0	1693	2751.598724607605	0.10465901417961
0	1698	2751.698724607605	0.10505050505051
0	1711	2751.898724607605	0.10487641950568
0	1717	2751.998724607605	0.10498338870432
0	1722	2751.998724607605	0.10550763105508
0	1725	2752.198724607605	0.10596026490066
0	1729	2752.298724607605	0.10582010582011
0	1734	2752.298724607605	0.10848126232742
0	1735	2752.298724607605	0.10848126232742
0	1736	2752.298724607605	0.10848126232742
0	1737	2752.298724607605	0.10848126232742
0	1740	2752.498724607605	0.10819672131148
0	1748	2752.498724607605	0.10842586544742
0	1754	2752.798724607605	0.10865322055953
0	1760	2752.798724607605	0.10902011680727
0	1763	2752.998724607605	0.10945595854922
0	1764	2752.998724607605	0.11003236245955
0	1766	2753.098724607605	0.11003236245955
0	1800	2808.824072763927	0.10864040660737
0	1809	2809.024072763927	0.10851735015773
0	1814	2809.024072763927	0.10901071203529
0	1817	2809.224072763927	0.10929648241206
0	1820	2809.224072763927	0.10915934755332
0	1827	2809.324072763927	0.10951188986233
0	1844	2809.624072763927	0.10897832817337
0	1885	2810.424072763927	0.10714285714286
0	1897	2810.524072763927	0.10703547805171
0	1903	2810.524072763927	0.10744297719088
0	1906	2810.724072763927	0.10784901138406
0	1915	2810.824072763927	0.10739856801909
0	1921	2810.824072763927	0.11025489033788
0	1922	2810.824072763927	0.11025489033788
0	1923	2810.824072763927	0.11025489033788
0	1924	2810.824072763927	0.11025489033788
0	1925	2810.824072763927	0.11025489033788
0	1928	2811.024072763927	0.10999408633944
0	1933	2811.124072763927	0.11038961038961
0	1943	2811.524072763927	0.11026392961877
0	1981	3033.809267993963	0.10874568469505
0	2027	3035.309267993963	0.10680157391793
0	2036	3035.309267993963	0.10712282669658
0	2038	3035.509267993963	0.10756302521008
0	2039	3035.609267993963	0.10756302521008
0	2047	3035.909267993963	0.10758082497213
0	2051	3035.909267993963	0.10801781737194
0	2053	3036.109267993963	0.10845383759733
0	2054	3036.209267993963	0.10845383759733
0	2057	3037.293086806736	0.10876803551609
0	2065	3037.493086806736	0.10896017699115
0	2066	3037.593086806736	0.10896017699115
0	2073	3037.593086806736	0.10946094609461
0	2081	3037.693086806736	0.10922063666301
0	2082	3037.793086806736	0.10970927043335
0	2098	3037.893086806736	0.10941752857921
0	2111	3038.193086806736	0.10918918918919
1	3	905.710484866703	0.5
1	4	905.810484866703	0.5
1	7	906.010484866703	0.5
1	8	906.010484866703	0.5
1	14	906.510484866703	0.33333333333333
1	40	908.610484866703	0.14705882352941
1	82	910.810484866703	0.071428571428571
1	85	911.110484866703	0.082191780821918
1	89	911.310484866703	0.092105263157895
1	91	911.510484866703	0.1025641025641
1	92	911.610484866703	0.1025641025641
1	95	911.810484866703	0.1219512195122
1	96	911.810484866703	0.1219512195122
1	102	912.310484866703	0.125
1	110	913.010484866703	0.12765957446809
1	138	1010.470064263933	0.11016949152542
1	141	1010.770064263933	0.11570247933884
1	145	1010.970064263933	0.12096774193548
1	147	1011.170064263933	0.12698412698413
1	148	1011.270064263933	0.12698412698413
1	152	1011.470064263933	0.12878787878788
1	156	1011.470064263933	0.13333333333333
1	160	1011.770064263933	0.13138686131387
1	164	1011.770064263933	0.13475177304965
1	169	1012.070064263933	0.13103448275862
1	190	1013.370064263933	0.1219512195122
1	204	1013.970064263933	0.11931818181818
1	223	1111.081593006638	0.11578947368421
1	227	1111.381593006638	0.11794871794872
1	229	1111.381593006638	0.12182741116751
1	233	1111.381593006638	0.125
1	235	1111.681593006638	0.125
1	239	1111.681593006638	0.12682926829268
1	241	1111.681593006638	0.12682926829268
1	244	1111.981593006638	0.12980769230769
1	253	1112.281593006638	0.13023255813953
1	256	1112.581593006638	0.13302752293578
1	260	1112.581593006638	0.13574660633484
1	262	1112.581593006638	0.1390134529148
1	263	1112.881593006638	0.1390134529148
1	266	1112.881593006638	0.14537444933921
1	267	1112.881593006638	0.14537444933921
1	273	1113.181593006638	0.14529914529915
1	296	1114.181593006638	0.13833992094862
1	298	1114.181593006638	0.14117647058824
1	301	1114.481593006638	0.14285714285714
1	321	1205.351281637216	0.13868613138686
1	324	1205.651281637216	0.14028776978417
1	330	1205.651281637216	0.14184397163121
1	332	1205.651281637216	0.1443661971831
1	333	1205.951281637216	0.1443661971831
1	336	1205.951281637216	0.14930555555556
1	337	1205.951281637216	0.14930555555556
1	342	1206.251281637216	0.15068493150685
1	628	1406.931591391375	0.083179297597043
1	631	1407.231591391375	0.084403669724771
1	637	1407.231591391375	0.085610200364299
1	639	1407.231591391375	0.087114337568058
1	640	1407.531591391375	0.087114337568058
1	643	1407.531591391375	0.09009009009009
1	644	1407.531591391375	0.09009009009009
1	649	1407.831591391375	0.091234347048301
1	667	1408.431591391375	0.089965397923875
1	713	1409.831591391375	0.085483870967742
1	948	1602.38384669093	0.065454545454545
1	951	1602.68384669093	0.066344993968637
1	957	1602.68384669093	0.067226890756303
1	959	1602.68384669093	0.068263473053892
1	960	1602.98384669093	0.068263473053892
1	963	1602.98384669093	0.070321811680572
1	964	1602.98384669093	0.070321811680572
1	970	1603.28384669093	0.070838252656434
1	995	1603.88384669093	0.070357554786621
1	1033	1605.08384669093	0.06881243063263
1	1036	1605.38384669093	0.069613259668508
1	1042	1605.38384669093	0.07040704070407
1	1044	1605.38384669093	0.071350164654226
1	1045	1605.68384669093	0.071350164654226
1	1048	1605.68384669093	0.073224043715847
1	1049	1605.68384669093	0.073224043715847
1	1054	1605.98384669093	0.073993471164309
1	1357	2027.692176267182	0.058080808080808
1	1360	2027.992176267182	0.058724832214765
1	1366	2027.992176267182	0.059364548494983
1	1368	2027.992176267182	0.060100166944908
1	1369	2028.292176267182	0.060100166944908
1	1372	2028.292176267182	0.061564059900166
1	1373	2028.292176267182	0.061564059900166
1	1379	2028.592176267182	0.062034739454094
1	1389	2028.892176267182	0.0625
1	1482	2422.934974279965	0.059413580246914
1	1485	2423.234974279965	0.060046189376443
1	1489	2423.234974279965	0.060675883256528
1	1491	2423.234974279965	0.061349693251534
1	1492	2423.534974279965	0.061349693251534
1	1495	2423.534974279965	0.062691131498471
1	1496	2423.534974279965	0.062691131498471
1	1501	2423.834974279965	0.063117870722433
1	1514	2424.534974279965	0.063444108761329
1	1516	2424.534974279965	0.064102564102564
1	1519	2424.834974279965	0.064661654135338
1	1525	2424.834974279965	0.065217391304348
1	1527	2424.834974279965	0.065868263473054
1	1528	2425.134974279965	0.065868263473054
1	1531	2425.134974279965	0.067164179104478
1	1532	2425.134974279965	0.067164179104478
1	1537	2425.434974279965	0.067708333333333
1	1539	2425.434974279965	0.068350668647845
1	1542	2425.734974279965	0.068837897853442
1	1577	2749.098724607605	0.068017366136035
1	1588	2749.298724607605	0.068394528437725
1	1592	2749.598724607605	0.068866571018651
1	1594	2749.598724607605	0.069484240687679
1	1598	2749.598724607605	0.070050035739814
1	1600	2749.898724607605	0.070050035739814
1	1604	2749.898724607605	0.070512820512821
1	1606	2749.898724607605	0.070462633451957
1	1612	2750.198724607605	0.070871722182849
1	1620	2750.198724607605	0.071277346506704
1	1623	2750.198724607605	0.071830985915493
1	1624	2750.198724607605	0.072484166080225
1	1626	2750.498724607605	0.072484166080225
1	1630	2750.498724607605	0.073580939032936
1	1632	2750.498724607605	0.074177746675997
1	1633	2750.498724607605	0.074177746675997
1	1637	2750.498724607605	0.074720670391061
1	1639	2750.498724607605	0.075313807531381
1	1643	2750.798724607605	0.07505211952745
1	1644	2750.798724607605	0.075694444444444
1	1662	2751.098724607605	0.075601374570447
1	1666	2751.098724607605	0.076183939601922
1	1668	2751.098724607605	0.07676490747087
1	1681	2751.398724607605	0.076190476190476
1	1685	2751.398724607605	0.077913279132791
1	1686	2751.398724607605	0.077913279132791
1	1687	2751.398724607605	0.077913279132791
1	1694	2751.598724607605	0.078272604588394
1	1696	2751.598724607605	0.078840970350404
1	1699	2751.698724607605	0.079407806191117
1	1704	2751.898724607605	0.079758713136729
1	1710	2751.898724607605	0.080213903743316
1	1712	2751.898724607605	0.080774365821095
1	1716	2751.998724607605	0.080452127659574
1	1724	2752.198724607605	0.080848243870113
1	1727	2752.198724607605	0.081403044341496
1	1730	2752.298724607605	0.081740276862228
1	1741	2752.498724607605	0.081913499344692
1	1747	2752.498724607605	0.082352941176471
1	1749	2752.498724607605	0.08289817232376
1	1753	2752.798724607605	0.082790091264668
1	1757	2752.798724607605	0.084415584415584
1	1758	2752.798724607605	0.084415584415584
1	1759	2752.798724607605	0.084415584415584
1	1767	2753.098724607605	0.084734799482536
1	1798	2808.724072763927	0.083916083916084
1	1806	2809.024072763927	0.084070796460177
1	1916	2810.824072763927	0.079667063020214
1	2026	3035.309267993963	0.075928008998875
1	2069	3037.593086806736	0.07497243660419
1	2078	3037.593086806736	0.075274725274725
1	2089	3037.893086806736	0.075368651010377
1	2097	3037.893086806736	0.075708061002179
1	2099	3037.893086806736	0.076169749727965
1	2109	3038.193086806736	0.075798592311857
2	6	905.910484866703	0
2	74	910.210484866703	0.015873015873016
2	77	910.510484866703	0.03030303030303
2	81	910.710484866703	0.043478260869565
2	83	910.910484866703	0.056338028169014
2	84	911.010484866703	0.056338028169014
2	87	911.210484866703	0.08
2	88	911.210484866703	0.08
2	94	911.710484866703	0.08641975308642
2	111	913.110484866703	0.084210526315789
2	130	1009.870064263933	0.081081081081081
2	133	1010.170064263933	0.087719298245614
2	137	1010.370064263933	0.094017094017094
2	139	1010.570064263933	0.10084033613445
2	140	1010.670064263933	0.10084033613445
2	143	1010.870064263933	0.11382113821138
2	144	1010.870064263933	0.11382113821138
2	149	1011.370064263933	0.11811023622047
2	215	1110.481593006638	0.087431693989071
2	218	1110.781593006638	0.091397849462366
2	222	1110.981593006638	0.095238095238095
2	224	1111.181593006638	0.099476439790576
2	225	1111.281593006638	0.099476439790576
2	228	1111.381593006638	0.10204081632653
2	234	1111.381593006638	0.105
2	236	1111.681593006638	0.1044776119403
2	240	1111.681593006638	0.10731707317073
2	245	1111.981593006638	0.10526315789474
2	248	1111.981593006638	0.10900473933649
2	250	1111.981593006638	0.11267605633803
2	251	1112.281593006638	0.11267605633803
2	257	1112.581593006638	0.11415525114155
2	302	1114.481593006638	0.1
2	314	1204.851281637216	0.1044776119403
2	315	1205.151281637216	0.1044776119403
2	317	1205.151281637216	0.11070110701107
2	319	1205.351281637216	0.11029411764706
2	325	1205.651281637216	0.11111111111111
2	344	1206.251281637216	0.10884353741497
2	405	1208.951281637216	0.091954022988506
2	408	1209.251281637216	0.094017094017094
2	412	1209.451281637216	0.096045197740113
2	414	1209.451281637216	0.098314606741573
2	415	1209.751281637216	0.098314606741573
2	427	1210.351281637216	0.097560975609756
2	431	1210.351281637216	0.099730458221024
2	433	1210.351281637216	0.10187667560322
2	434	1210.651281637216	0.10187667560322
2	441	1210.951281637216	0.10236220472441
2	589	1405.631591391375	0.078895463510848
2	596	1406.031591391375	0.079611650485437
2	598	1406.031591391375	0.081237911025145
2	602	1406.031591391375	0.082692307692308
2	604	1406.331591391375	0.082692307692308
2	608	1406.331591391375	0.083809523809524
2	610	1406.331591391375	0.083809523809524
2	613	1406.631591391375	0.085227272727273
2	617	1406.631591391375	0.086629001883239
2	619	1406.631591391375	0.088180112570356
2	620	1406.931591391375	0.088180112570356
2	624	1406.931591391375	0.092764378478664
2	625	1406.931591391375	0.092764378478664
2	626	1406.931591391375	0.092764378478664
2	632	1407.231591391375	0.093406593406593
2	651	1407.831591391375	0.092691622103387
2	653	1407.831591391375	0.094138543516874
2	656	1408.131591391375	0.095238095238095
2	697	1409.231591391375	0.091210613598673
2	700	1409.531591391375	0.092105263157895
2	726	1410.131591391375	0.090189873417722
2	741	1522.235244220363	0.09190031152648
2	742	1522.535244220363	0.09190031152648
2	746	1522.535244220363	0.095679012345679
2	747	1522.535244220363	0.095679012345679
2	748	1522.535244220363	0.095679012345679
2	755	1522.835244220363	0.095890410958904
2	796	1523.935244220363	0.092485549132948
2	827	1524.835244220363	0.089012517385257
2	830	1525.135244220363	0.089655172413793
2	952	1602.68384669093	0.079518072289157
2	983	1603.58384669093	0.077997671711292
2	1037	1605.38384669093	0.075055187637969
2	1062	1810.346505916187	0.074433656957929
2	1068	1810.646505916187	0.07502679528403
2	1073	1810.646505916187	0.075854700854701
2	1075	1810.646505916187	0.076759061833689
2	1081	1810.946505916187	0.076433121019108
2	1085	1810.946505916187	0.079113924050633
2	1086	1810.946505916187	0.079113924050633
2	1087	1810.946505916187	0.079113924050633
2	1106	1811.246505916187	0.078593588417787
2	1152	1812.246505916187	0.076464746772592
2	1156	1812.246505916187	0.077151335311573
2	1162	1812.546505916187	0.077679449360865
2	1205	1813.146505916187	0.075901328273245
2	1211	1813.446505916187	0.076343072573044
2	1224	1813.746505916187	0.076635514018692
2	1227	1814.046505916187	0.077209302325581
2	1264	1814.946505916187	0.075949367088608
2	1267	1815.246505916187	0.076438848920863
2	1361	2027.992176267182	0.0720871751886
2	1380	2028.592176267182	0.071900826446281
2	1481	2422.934974279965	0.067953667953668
2	1483	2422.934974279965	0.068619892058597
2	1484	2423.234974279965	0.068619892058597
2	1487	2423.234974279965	0.069946195234435
2	1488	2423.234974279965	0.069946195234435
2	1494	2423.534974279965	0.070390206579954
2	1515	2424.534974279965	0.070188679245283
2	1517	2424.534974279965	0.070836473247928
2	1518	2424.834974279965	0.070836473247928
2	1522	2424.834974279965	0.072768192048012
2	1523	2424.834974279965	0.072768192048012
2	1524	2424.834974279965	0.072768192048012
2	1530	2425.134974279965	0.073188946975355
2	1538	2425.434974279965	0.07360594795539
2	1540	2425.434974279965	0.074239049740163
2	1541	2425.734974279965	0.074239049740163
2	1546	2425.734974279965	0.076752767527675
2	1547	2425.734974279965	0.076752767527675
2	1548	2425.734974279965	0.076752767527675
2	1549	2425.734974279965	0.076752767527675
2	1558	2426.034974279965	0.076754385964912
2	1571	2426.534974279965	0.077090909090909
2	1580	2749.098724607605	0.076534296028881
2	1587	2749.298724607605	0.077089337175793
2	1589	2749.298724607605	0.077697841726619
2	1590	2749.598724607605	0.077697841726619
2	1593	2749.598724607605	0.078136200716846
2	1599	2749.598724607605	0.078627591136526
2	1601	2749.898724607605	0.078571428571429
2	1605	2749.898724607605	0.079059829059829
2	1609	2749.898724607605	0.079601990049751
2	1611	2750.198724607605	0.079488999290277
2	1613	2750.198724607605	0.080736543909348
2	1618	2750.198724607605	0.081214689265537
2	1619	2750.198724607605	0.081214689265537
2	1631	2750.498724607605	0.081232492997199
2	1651	2750.798724607605	0.081024930747922
2	1653	2750.798724607605	0.081604426002766
2	1659	2751.098724607605	0.081379310344828
2	1663	2751.098724607605	0.083104395604396
2	1664	2751.098724607605	0.083104395604396
2	1665	2751.098724607605	0.083104395604396
2	1684	2751.398724607605	0.08271186440678
2	1700	2751.698724607605	0.082716879623403
2	1702	2751.698724607605	0.083277367360645
2	1705	2751.898724607605	0.083054253181514
2	1713	2751.998724607605	0.083444592790387
2	1718	2751.998724607605	0.085657370517928
2	1719	2751.998724607605	0.085657370517928
2	1720	2751.998724607605	0.085657370517928
2	1721	2751.998724607605	0.085657370517928
2	1733	2752.298724607605	0.085526315789474
2	1742	2752.498724607605	0.085789129011133
2	1756	2752.798724607605	0.085769980506823
2	1765	2752.998724607605	0.086084142394822
2	1785	2808.424072763927	0.085201793721973
2	1790	2808.724072763927	0.085459183673469
2	1807	2809.024072763927	0.085281111813013
2	1849	2809.624072763927	0.084054388133498
2	1860	2809.924072763927	0.084100675260896
2	1866	2809.924072763927	0.084507042253521
2	1868	2809.924072763927	0.085015290519878
2	1877	2810.224072763927	0.084652862362972
2	1886	2810.424072763927	0.084694494857834
2	1892	2810.424072763927	0.085144927536232
2	1898	2810.524072763927	0.085336538461538
2	1919	2810.824072763927	0.08486646884273
2	1939	2811.224072763927	0.084755738669806
2	1944	2811.524072763927	0.084994138335287
2	1953	2811.524072763927	0.085330216247808
2	1955	2811.524072763927	0.085814360770578
2	1956	2811.824072763927	0.085814360770578
2	1982	3033.809267993963	0.085106382978723
2	1990	3033.809267993963	0.08548479632817
2	1996	3034.109267993963	0.085714285714286
2	1998	3034.109267993963	0.086187214611872
2	2002	3034.109267993963	0.086609686609687
2	2004	3034.409267993963	0.086609686609687
2	2008	3034.409267993963	0.086931818181818
2	2010	3034.409267993963	0.086931818181818
2	2013	3034.709267993963	0.087400681044268
2	2016	3035.009267993963	0.087818696883853
2	2020	3035.009267993963	0.088235294117647
2	2022	3035.009267993963	0.088700564971751
2	2023	3035.309267993963	0.088700564971751
2	2030	3035.309267993963	0.091470258136925
2	2031	3035.309267993963	0.091470258136925
2	2032	3035.309267993963	0.091470258136925
2	2033	3035.309267993963	0.091470258136925
2	2034	3035.309267993963	0.091470258136925
2	2035	3035.309267993963	0.091470258136925
2	2040	3035.609267993963	0.091825307950728
2	2042	3035.609267993963	0.092281879194631
2	2045	3035.909267993963	0.092633928571429
2	2058	3037.293086806736	0.092623405435385
2	2062	3037.293086806736	0.092971776425014
2	2067	3037.593086806736	0.092817679558011
2	2074	3037.593086806736	0.093509350935094
2	2075	3037.593086806736	0.093509350935094
2	2090	3037.893086806736	0.093340611353712
3	10	906.210484866703	0
3	13	906.510484866703	0.090909090909091
3	17	906.710484866703	0.14285714285714
3	19	906.910484866703	0.1875
3	20	907.010484866703	0.1875
3	23	907.210484866703	0.25
3	24	907.210484866703	0.25
3	30	907.710484866703	0.23076923076923
3	38	908.410484866703	0.21875
3	98	912.010484866703	0.095238095238095
3	101	912.310484866703	0.10344827586207
3	105	912.510484866703	0.11111111111111
3	107	912.710484866703	0.1195652173913
3	108	912.810484866703	0.1195652173913
3	120	913.610484866703	0.11428571428571
3	157	1011.570064263933	0.096296296296296
3	173	1012.170064263933	0.094594594594595
3	178	1012.470064263933	0.098684210526316
3	180	1012.670064263933	0.1038961038961
3	182	1012.870064263933	0.10897435897436
3	183	1012.970064263933	0.10897435897436
3	191	1013.370064263933	0.10909090909091
3	196	1013.470064263933	0.11309523809524
3	205	1013.970064263933	0.11299435028249
3	210	1014.070064263933	0.11666666666667
3	274	1113.181593006638	0.093617021276596
3	278	1113.181593006638	0.09704641350211
3	280	1113.381593006638	0.10041841004184
3	281	1113.481593006638	0.10041841004184
3	284	1113.481593006638	0.11428571428571
3	285	1113.481593006638	0.11428571428571
3	288	1113.681593006638	0.11336032388664
3	289	1113.681593006638	0.11336032388664
3	294	1114.181593006638	0.11553784860558
3	351	1206.351281637216	0.099667774086379
3	367	1206.951281637216	0.098726114649682
3	372	1207.251281637216	0.10062893081761
3	374	1207.451281637216	0.103125
3	376	1207.651281637216	0.1055900621118
3	377	1207.751281637216	0.1055900621118
3	380	1207.751281637216	0.11585365853659
3	381	1207.751281637216	0.11585365853659
3	384	1207.951281637216	0.11515151515152
3	385	1207.951281637216	0.11515151515152
3	392	1208.251281637216	0.11538461538462
3	419	1209.951281637216	0.11111111111111
3	446	1211.051281637216	0.10677083333333
3	451	1211.351281637216	0.10824742268041
3	453	1211.551281637216	0.11025641025641
3	455	1211.751281637216	0.11224489795918
3	456	1211.851281637216	0.11224489795918
3	507	1307.955191968829	0.10297482837529
3	511	1307.955191968829	0.10478359908884
3	513	1308.155191968829	0.10657596371882
3	514	1308.255191968829	0.10657596371882
3	523	1308.555191968829	0.10643015521064
3	527	1308.555191968829	0.10816777041943
3	529	1308.755191968829	0.10989010989011
3	530	1308.855191968829	0.10989010989011
3	537	1309.155191968829	0.11015118790497
3	541	1309.155191968829	0.11182795698925
3	543	1309.355191968829	0.1134903640257
3	544	1309.455191968829	0.1134903640257
3	547	1403.631591391375	0.11513859275053
3	552	1403.931591391375	0.11627906976744
3	554	1404.131591391375	0.11789473684211
3	556	1404.331591391375	0.11949685534591
3	557	1404.431591391375	0.11949685534591
3	562	1404.431591391375	0.12936344969199
3	563	1404.431591391375	0.12936344969199
3	564	1404.431591391375	0.12936344969199
3	565	1404.431591391375	0.12936344969199
3	568	1404.631591391375	0.12883435582822
3	569	1404.631591391375	0.12883435582822
3	576	1404.931591391375	0.12877263581489
3	594	1405.931591391375	0.12720156555773
3	668	1408.431591391375	0.1139896373057
3	674	1408.431591391375	0.11512027491409
3	676	1408.631591391375	0.11643835616438
3	677	1408.731591391375	0.11643835616438
3	682	1408.731591391375	0.12457912457912
3	683	1408.731591391375	0.12457912457912
3	684	1408.731591391375	0.12457912457912
3	685	1408.731591391375	0.12457912457912
3	688	1408.931591391375	0.1241610738255
3	689	1408.931591391375	0.1241610738255
3	694	1409.231591391375	0.125
3	714	1409.831591391375	0.12238325281804
3	727	1410.131591391375	0.1216429699842
3	733	1410.231591391375	0.12264150943396
3	756	1522.835244220363	0.12006079027356
3	761	1522.835244220363	0.12121212121212
3	763	1523.035244220363	0.12235649546828
3	764	1523.135244220363	0.12235649546828
3	769	1523.135244220363	0.12946428571429
3	770	1523.135244220363	0.12946428571429
3	771	1523.135244220363	0.12946428571429
3	772	1523.135244220363	0.12946428571429