file 134547617 1357924118                                       
version 2
run TwoThousandNodes-0-20130111-17:21:06-3238
attr configname TwoThousandNodes
attr datetime 20130111-17:21:06
attr experiment TwoThousandNodes
attr inifile omnetpp.ini
attr iterationvars ""
attr iterationvars2 $repetition=0
attr measurement ""
attr network SimphonyDHTNetwork
attr processid 3238
attr repetition 0
attr replication #0
attr resultdir results
attr runnumber 0
attr seedset 0
vector 0  SimphonyDHTNetwork.members[272]  ""  ETV
0	63631 30517 2 698786 102513.574488236908 119040.030471543939 936 0 878 410647 240555873
0	24162266 28634 702462 1398038 119101.530471543939 135133.596449432093 836 879 1665 1064038 1397450600
0	49244319 46899 1398932 2092177 135152.596449432093 152952.282668098393 1344 1666 2922 3087509 7269894099
0	74864793 58662 2099235 2796060 153138.109090411841 171913.16608859691 1681 2923 4487 6230614 23436644806
0	100542081 14274 2817780 3480274 172728.149565827246 195280.994579013317 408 4488 4868 1908915 8936178337
0	126283115 2413 3495413 3718598 195938.241999902148 204869.938113547916 69 4869 4934 338272 1658401172
vector 1  SimphonyDHTNetwork.members[273]  ""  ETV
1	94148 20907 3 688898 102513.674488236908 118880.127696520388 645 1 606 195511 78778545
1	24190900 4142 712957 1393653 119298.931043568086 135034.182593729676 124 607 730 82894 55573514
1	49291218 4380 1405911 1974509 135352.258778164986 150017.829900170698 129 731 855 102289 81277511
1	74923455 1145 2099154 2796063 153137.209090411841 171913.16608859691 34 856 888 29661 25878891
1	100556355 1658 2817751 3399619 172727.249565827246 192202.856103493438 49 889 933 44618 40635774
1	126285528 1628 3495358 3718555 195937.341999902148 204869.338113547916 48 934 981 45960 44015912
vector 2  SimphonyDHTNetwork.members[274]  ""  ETV
2	115055 38717 6 695465 102513.874488236908 118986.802521914149 1180 0 1113 660477 491673681
2	24195042 37682 708877 1397956 119229.231043568086 135132.396449432093 1096 1114 2147 1788851 3017629467
2	49295598 37902 1398994 2090500 135154.796449432093 152932.782668098393 1086 2148 3182 2890013 7786406153
2	74924600 12450 2099120 2796065 153136.909090411841 171913.26608859691 357 3183 3525 1197999 4023706537
2	100558013 15722 2797894 3488094 172012.214679535688 195635.451617795745 451 3526 3960 1688136 6325961354
2	126287156 12747 3495337 3719726 195937.041999902148 204888.338113547916 365 3961 4298 1508019 6233918461
vector 3  SimphonyDHTNetwork.members[263]  ""  ETV
3	153772 23994 7 695506 102513.874488236908 118987.402521914149 738 0 706 258252 120663520
3	24232724 10945 708917 1397995 119229.831043568086 135132.996449432093 327 707 1032 284302 250067024
3	49333500 13470 1399013 2090559 135155.396449432093 152933.382668098393 386 1033 1415 472596 583324646
3	74937050 7333 2099206 2796077 153137.809090411841 171913.54718454955 210 1416 1623 319154 485810676
3	100573735 18434 2797938 3488126 172013.714679535688 195636.051617795745 527 1624 2121 986805 1858612829
3	126299903 3809 3495396 3718638 195937.941999902148 204870.538113547916 109 2122 2228 237129 515976761
vector 4  SimphonyDHTNetwork.members[264]  ""  ETV
4	177766 36215 8 695507 102513.874488236908 118987.402521914149 1106 0 1042 580218 404579186
4	24243669 36993 708918 1397996 119229.831043568086 135132.996449432093 1076 1043 2051 1666917 2674063813
4	49346970 29497 1399014 2090560 135155.396449432093 152933.382668098393 845 2052 2846 2067597 5103106111
4	74944383 12083 2099175 2796078 153137.509090411841 171913.54718454955 346 2847 3175 1042072 3141639882
4	100592169 11648 2797939 3488127 172013.714679535688 195636.051617795745 334 3176 3493 1114037 3718618741
4	126303712 11034 3495371 3719725 195937.641999902148 204888.238113547916 316 3494 3786 1150738 4192759058
vector 5  SimphonyDHTNetwork.members[265]  ""  ETV
5	213981 29340 9 696548 102513.874488236908 119006.402521914149 896 0 850 382240 216808458
5	24280662 32910 699828 1393656 119057.764941820436 135034.182593729676 963 851 1752 1255871 1703194419
5	49376467 49936 1405920 2096725 135352.558778164986 153068.702490866788 1434 1753 3085 3472206 8619893406
5	74956466 14355 2099176 2796079 153137.509090411841 171913.54718454955 411 3086 3477 1349094 4433622020
5	100603817 35662 2796276 3489616 171918.54718454955 195660.051617795745 1020 3478 4428 4034960 16038410712
5	126314746 5347 3495372 3718557 195937.641999902148 204869.338113547916 153 4429 4573 688740 3100675504
vector 6  SimphonyDHTNetwork.members[281]  ""  ETV
6	243321 23362 10 698783 102513.874488236908 119040.030471543939 717 0 682 245553 111727181
6	24313572 20761 702421 1397998 119100.930471543939 135132.996449432093 615 683 1273 601941 606935791
6	49426403 16625 1398985 2090562 135154.496449432093 152933.382668098393 476 1274 1736 716343 1086516113
6	74970821 15430 2115884 2795961 153551.027935447107 171911.66608859691 442 1737 2173 864926 1699639668
6	100639479 11150 2835985 3490724 173242.209076172758 195681.051617795745 319 2174 2476 742512 1730723396
6	126320093 1435 3520595 3713023 196620.871421058105 204659.198819520809 41 2477 2515 102372 255615102
vector 7  SimphonyDHTNetwork.members[282]  ""  ETV
7	266683 27219 11 698748 102513.874488236908 119039.430471543939 836 0 797 333351 177482355
7	24334333 30167 702422 1397999 119100.930471543939 135132.996449432093 884 798 1627 1071412 1349571804
7	49443028 45269 1398933 2092186 135152.696449432093 152952.382668098393 1297 1628 2840 2901855 6651555527
7	74986251 57164 2099177 2795895 153137.509090411841 171910.56608859691 1638 2841 4364 5902902 21589048478
7	100650629 14472 2817760 3480272 172727.549565827246 195280.994579013317 414 4365 4753 1887664 8612108668
7	126321528 1258 3495373 3718558 195937.641999902148 204869.338113547916 36 4754 4789 171774 819623526
vector 8  SimphonyDHTNetwork.members[283]  ""  ETV
8	293902 31771 12 695426 102513.874488236908 118986.202521914149 973 0 917 448784 275285956
8	24364500 24916 708837 1397913 119228.631043568086 135131.796449432093 727 918 1597 914646 1179097266
8	49488297 18590 1398971 2090438 135154.196449432093 152932.182668098393 532 1598 2105 984415 1832812777
8	75043415 8674 2099062 2795999 153136.309090411841 171912.34718454955 249 2106 2346 554525 1236142329
8	100665101 8148 2797902 3488047 172012.514679535688 195634.851617795745 233 2347 2570 572956 1409903248
8	126322786 6624 3495297 3718559 195936.441999902148 204869.338113547916 190 2571 2747 505426 1344995236
vector 9  SimphonyDHTNetwork.members[262]  ""  ETV
9	325673 31336 22 698828 102514.174488236908 119040.630471543939 960 0 905 434736 262514646
9	24389416 29695 702502 1398079 119102.130471543939 135134.196449432093 866 906 1721 1138282 1544295418
9	49506887 45735 1398931 2092175 135152.496449432093 152952.182668098393 1311 1722 2944 3062189 7315899585
9	75052089 59516 2099291 2792362 153138.709090411841 171791.611904264438 1705 2945 4528 6375486 24197305338
9	100673249 1260 2824821 3363044 172919.023346806518 190862.170711609024 36 4528 4559 163568 743183352
vector 10  SimphonyDHTNetwork.members[253]  ""  ETV
10	357009 24377 27 695551 102514.474488236908 118988.002521914149 727 0 700 252674 117105844
10	24419111 14094 708956 1398073 119230.431043568086 135134.196449432093 407 701 1104 367294 336992322
10	49552622 16258 1399032 2090673 135155.996449432093 152934.582668098393 453 1105 1555 602683 809486619
10	75111605 11563 2099264 2796102 153138.409090411841 171914.14718454955 322 1556 1876 552684 951405524
10	100674509 14569 2797957 3488165 172014.314679535688 195636.651617795745 405 1877 2258 837067 1734944827
10	126329410 4241 3495433 3718678 195938.541999902148 204871.138113547916 118 2259 2373 273329 633253535
vector 11  SimphonyDHTNetwork.members[254]  ""  ETV
11	381386 37643 28 695552 102514.474488236908 118988.002521914149 1115 0 1054 591411 417185329
11	24433205 40150 703694 1398035 119121.164941820436 135133.596449432093 1135 1055 2124 1806093 2982609951
11	49568880 39082 1399033 2090618 135155.996449432093 152933.982668098393 1089 2125 3163 2875245 7688285453
11	75123168 13865 2099232 2796103 153138.109090411841 171914.14718454955 386 3164 3534 1293379 4338215365
11	100689078 14286 2797930 3488166 172013.414679535688 195636.651617795745 398 3535 3920 1483607 5535320929
11	126333651 11028 3495410 3719724 195938.241999902148 204888.138113547916 307 3921 4204 1247558 5071776818
vector 12  SimphonyDHTNetwork.members[255]  ""  ETV
12	419029 31056 29 696545 102514.474488236908 119006.302521914149 920 0 874 403594 235472452
12	24473355 35378 699854 1393732 119058.364941820436 135035.382593729676 1005 875 1823 1357391 1908575519
12	49607962 56134 1405947 2096743 135353.158778164986 153069.302490866788 1567 1824 3290 4012195 10554075733
12	75137033 14911 2099233 2796104 153138.109090411841 171914.14718454955 415 3291 3687 1448493 5061169295
12	100703364 38979 2796274 3489606 171918.44718454955 195659.951617795745 1084 3688 4705 4552778 19214985746
12	126344679 7800 3495411 3718680 195938.241999902148 204871.138113547916 217 4706 4913 1043697 5020604997
vector 13  SimphonyDHTNetwork.members[271]  ""  ETV
13	450085 27378 30 698785 102514.474488236908 119040.030471543939 817 0 766 314393 161099735
13	24508733 14578 702461 1398037 119101.530471543939 135133.596449432093 421 767 1167 407570 400183800
13	49664096 9663 1399035 2090620 135155.996449432093 152933.982668098393 269 1168 1426 348933 454116601
13	75151944 7783 2115980 2796057 153552.527935447107 171913.16608859691 217 1427 1639 333028 511933368
13	100742343 8745 2824811 3489827 172918.923346806518 195663.551617795745 243 1640 1868 426727 750421279
13	126352479 1475 3520678 3713044 196621.471421058105 204659.798819520809 41 1869 1907 77429 146230369
vector 14  SimphonyDHTNetwork.members[252]  ""  ETV
14	477463 31484 42 698867 102514.774488236908 119041.230471543939 936 0 887 415945 246484321
14	24523311 31158 702541 1398087 119102.730471543939 135134.296449432093 883 888 1719 1151604 1552911962
14	49673759 46022 1398117 2092173 135134.796449432093 152952.082668098393 1282 1720 2919 2977755 7070570225
14	75159727 60463 2099350 2791135 153139.309090411841 171770.511904264438 1684 2920 4488 6239082 23460246302
14	100751088 4176 2817816 3480354 172729.349565827246 195282.794579013317 116 4489 4604 527394 2397926886
14	126353954 2013 3520837 3708205 196622.671421058105 204517.606024846544 56 4605 4657 259370 1201312940
vector 15  SimphonyDHTNetwork.members[243]  ""  ETV
15	508947 24987 47 695589 102515.074488236908 118988.602521914149 745 0 715 264580 125271054
15	24554469 13824 708995 1398075 119231.031043568086 135134.196449432093 398 716 1108 363758 337642784
15	49719781 12667 1398111 2090732 135134.796449432093 152935.182668098393 353 1109 1459 453352 585839474
15	75220190 10544 2099397 2796127 153139.909090411841 171914.74718454955 294 1460 1751 472231 760608707
15	100755264 15583 2797976 3488203 172014.914679535688 195637.251617795745 433 1752 2160 847196 1663609014
15	126355967 4424 3495518 3718716 195940.041999902148 204871.738113547916 123 2161 2278 273148 606728214
vector 16  SimphonyDHTNetwork.members[244]  ""  ETV
16	533934 38092 48 695590 102515.074488236908 118988.602521914149 1128 0 1064 603531 429568085
16	24568293 39709 703709 1398076 119121.464941820436 135134.196449432093 1122 1065 2120 1789945 2960263103
16	49732448 38867 1399052 2090676 135156.596449432093 152934.582668098393 1083 2121 3153 2851871 7605083973
16	75230734 14924 2099288 2796128 153138.709090411841 171914.74718454955 416 3154 3552 1395671 4688001923
16	100770847 8305 2797950 3488161 172014.014679535688 195636.651617795745 231 3553 3774 845849 3098164187
16	126360391 3524 3495465 3709701 195939.141999902148 204540.806024846544 98 3775 3866 374531 1431431293
vector 17  SimphonyDHTNetwork.members[245]  ""  ETV
17	572026 31818 49 696542 102515.074488236908 119006.202521914149 943 0 895 423432 252915948
17	24608002 34943 699881 1393773 119058.964941820436 135035.982593729676 992 896 1832 1354211 1921251349
17	49771315 55378 1405970 2096764 135353.758778164986 153069.902490866788 1546 1833 3278 3956473 10394723175
17	75245658 14928 2099289 2796129 153138.709090411841 171914.74718454955 416 3279 3677 1447347 5041115769
17	100779152 36222 2796272 3489604 171918.34718454955 195659.851617795745 1008 3678 4610 4179228 17400323448
17	126363915 15740 3495445 3719723 195938.841999902148 204888.038113547916 438 4611 5014 2108815 10159182279
vector 18  SimphonyDHTNetwork.members[261]  ""  ETV
18	603844 28058 50 698827 102515.074488236908 119040.630471543939 836 0 791 330937 174669023
18	24642945 18595 702501 1398078 119102.130471543939 135134.196449432093 534 792 1304 560152 599208968
18	49826693 12533 1399025 2090678 135155.696449432093 152934.582668098393 350 1305 1641 516183 764556731
18	75260586 11827 2103746 2796014 153223.436068766298 171912.46608859691 329 1642 1958 593067 1071879311
18	100815374 9719 2824880 3489864 172919.923346806518 195664.151617795745 270 1959 2212 563563 1177761343
18	126379655 2003 3520758 3713063 196622.071421058105 204660.398819520809 56 2213 2265 125457 281074947
vector 19  SimphonyDHTNetwork.members[242]  ""  ETV
19	631902 31413 62 698906 102515.374488236908 119041.830471543939 934 0 885 414033 244714707
19	24661540 29970 702580 1398101 119103.330471543939 135134.596449432093 849 886 1686 1092081 1450131407
19	49839226 46347 1398108 2092171 135134.696449432093 152951.982668098393 1291 1686 2894 2960943 6948283587
19	75272413 59775 2099396 2791137 153139.909090411841 171770.511904264438 1665 2895 4442 6110758 22759091642
19	100825093 3744 2817837 3480379 172729.949565827246 195283.094579013317 104 4443 4546 467428 2100948876
19	126381658 2662 3500191 3708246 196018.735917680961 204518.206024846544 74 4547 4617 339176 1554631808
vector 20  SimphonyDHTNetwork.members[233]  ""  ETV
20	663315 24778 67 695623 102515.674488236908 118989.202521914149 739 0 711 260608 122652040
20	24691510 14462 709035 1396640 119231.631043568086 135108.633058415031 416 712 1122 381784 356275390
20	49885573 18385 1398113 2090791 135134.796449432093 152935.782668098393 512 1123 1626 704904 981335218
20	75332188 9978 2099443 2796152 153140.509090411841 171915.34718454955 278 1627 1903 490640 867698688
20	100828837 15725 2797995 3488244 172015.514679535688 195637.851617795745 437 1904 2316 922083 1951771321
20	126384320 6764 3495552 3718756 195940.641999902148 204872.338113547916 188 2317 2491 452032 1087365686
vector 21  SimphonyDHTNetwork.members[234]  ""  ETV
21	688093 37528 68 695624 102515.674488236908 118989.202521914149 1112 0 1051 588101 413674043
21	24705972 39855 709036 1396623 119231.631043568086 135108.033058415031 1126 1052 2112 1783167 2929841083
21	49903958 39299 1398114 2090735 135134.796449432093 152935.182668098393 1095 2113 3154 2880843 7677467813
21	75342166 14891 2099347 2796153 153139.309090411841 171915.34718454955 415 3155 3549 1391399 4670474301
21	100844562 5859 2797996 3488245 172015.514679535688 195637.851617795745 163 3550 3708 591602 2147543578
21	126391084 2374 3495553 3718757 195940.641999902148 204872.338113547916 66 3709 3773 246912 923742678
vector 22  SimphonyDHTNetwork.members[235]  ""  ETV
22	725621 31343 69 696532 102515.674488236908 119006.102521914149 929 0 883 411506 242558584
22	24745827 34392 699907 1393810 119059.564941820436 135036.582593729676 976 884 1805 1313802 1837403310
22	49943257 55198 1405997 2096785 135354.358778164986 153070.502490866788 1541 1806 3248 3899268 10134027872
22	75357057 14271 2099348 2796154 153139.309090411841 171915.34718454955 398 3249 3627 1368449 4709893341
22	100850421 33883 2796270 3489603 171918.24718454955 195659.751617795745 943 3628 4495 3831916 15630157268
22	126393458 12432 3495477 3719722 195939.441999902148 204887.938113547916 346 4496 4813 1610796 7501938782
vector 23  SimphonyDHTNetwork.members[251]  ""  ETV
23	756964 27856 70 698903 102515.674488236908 119041.830471543939 830 0 790 328841 173277845
23	24780219 19197 702540 1398072 119102.730471543939 135134.196449432093 551 791 1317 580992 625252556
23	49998455 15239 1398116 2090737 135134.796449432093 152935.182668098393 425 1318 1734 648642 996073732
23	75371328 19690 2103785 2792358 153224.036068766298 171791.511904264438 548 1735 2270 1099466 2219212394
23	100884304 8027 2836104 3489905 173244.009076172758 195664.751617795745 223 2271 2481 530330 1262036268
23	126405890 2386 3520836 3713080 196622.671421058105 204660.998819520809 67 2482 2545 168474 423656210
vector 24  SimphonyDHTNetwork.members[232]  ""  ETV
24	784820 31071 82 698946 102515.974488236908 119042.430471543939 924 0 875 404699 236515203
24	24799416 29676 702620 1397188 119103.930471543939 135118.433058415031 841 876 1668 1070259 1406046487
24	50013694 46635 1398112 2092169 135134.796449432093 152951.882668098393 1299 1669 2884 2961076 6910114576
24	75391018 60032 2099442 2791212 153140.509090411841 171771.711904264438 1672 2885 4442 6126706 22787817160
24	100892331 4895 2810013 3436416 172443.466092791544 193620.051011708637 136 4443 4574 613264 2765581298
24	126408276 3562 3500226 3708283 196019.235917680961 204518.806024846544 99 4575 4666 457458 2113888120
vector 25  SimphonyDHTNetwork.members[223]  ""  ETV
25	815891 24698 87 695651 102516.274488236908 118989.802521914149 736 0 708 258564 121169388
25	24829092 13817 709075 1396660 119232.231043568086 135109.233058415031 398 709 1103 361036 332708056
25	50060329 17805 1398153 2090852 135135.396449432093 152936.382668098393 496 1104 1594 669821 914531319
25	75451050 11278 2099413 2796178 153140.209090411841 171915.94718454955 314 1595 1908 549971 965854109
25	100897226 18957 2796220 3494210 171916.74718454955 195860.328515544054 527 1909 2407 1136307 2461021341
25	126411838 7513 3495590 3718800 195941.241999902148 204872.938113547916 209 2408 2606 524312 1316014630
vector 26  SimphonyDHTNetwork.members[224]  ""  ETV
26	840589 37396 88 695652 102516.274488236908 118989.802521914149 1108 0 1047 583820 409041334
26	24842909 39001 709076 1396643 119232.231043568086 135108.633058415031 1102 1048 2086 1728812 2811600806
26	50078134 38865 1398154 2090794 135135.396449432093 152935.782668098393 1083 2087 3120 2815241 7413520059
26	75462328 14905 2099393 2796179 153139.909090411841 171915.94718454955 415 3121 3518 1378172 4582276886
26	100916183 13207 2796221 3494191 171916.74718454955 195859.728515544054 368 3519 3873 1359935 5029453973
26	126419351 3160 3495591 3718801 195941.241999902148 204872.938113547916 88 3874 3961 344740 1350575732
vector 27  SimphonyDHTNetwork.members[225]  ""  ETV
27	877985 31329 89 696522 102516.274488236908 119006.002521914149 928 0 882 410619 241717897
27	24881910 33740 699932 1393854 119060.164941820436 135037.182593729676 958 883 1788 1280780 1777681100
27	50116999 56493 1406022 2096803 135354.958778164986 153071.102490866788 1577 1789 3263 3987403 10368224873
27	75477233 12929 2099394 2796180 153139.909090411841 171915.94718454955 360 3264 3607 1237433 4256993813
27	100929390 41231 2796268 3489600 171918.14718454955 195659.651617795745 1148 3608 4674 4755612 19809133364
27	126422511 14048 3495516 3719721 195940.041999902148 204887.838113547916 391 4675 5038 1899584 9233001984
vector 28  SimphonyDHTNetwork.members[241]  ""  ETV
28	909314 28502 90 698943 102516.274488236908 119042.430471543939 849 0 807 343800 185187828
28	24915650 20411 702579 1398094 119103.330471543939 135134.496449432093 584 808 1371 636647 709413783
28	50173492 17714 1398110 2090796 135134.796449432093 152935.782668098393 494 1372 1856 797598 1297392078
28	75490162 19627 2103825 2792357 153224.636068766298 171791.411904264438 546 1857 2386 1160653 2480142213
28	100970621 8099 2836142 3489943 173244.609076172758 195665.351617795745 225 2387 2600 561473 1401974055
28	126436559 2312 3500361 3713100 196021.835917680961 204661.598819520809 65 2601 2663 171125 450540813
vector 29  SimphonyDHTNetwork.members[222]  ""  ETV
29	937816 30569 102 698986 102516.574488236908 119043.030471543939 909 0 861 392119 225500077
29	24936061 29448 702660 1397186 119104.530471543939 135118.333058415031 835 862 1649 1048805 1360565241
29	50191206 45949 1398152 2092159 135135.396449432093 152951.782668098393 1280 1650 2848 2882567 6645200303
29	75509789 59529 2099504 2791250 153141.109090411841 171772.311904264438 1658 2849 4394 6005949 22085646849
29	100978720 8166 2796219 3494238 171916.74718454955 195861.128515544054 227 4395 4613 1022249 4604409005
29	126438871 5100 3500357 3708321 196021.835917680961 204519.406024846544 142 4614 4749 664871 3113271523
vector 30  SimphonyDHTNetwork.members[213]  ""  ETV
30	968385 24633 107 695677 102516.874488236908 118990.402521914149 734 0 707 257337 120411849
30	24965509 13672 709115 1396680 119232.831043568086 135109.833058415031 394 708 1098 356209 327085873
30	50237155 18696 1398195 2090915 135135.996449432093 152936.982668098393 521 1099 1612 706852 970463118
30	75569318 13187 2099465 2791253 153140.809090411841 171772.311904264438 367 1613 1975 658008 1183814294
30	100986886 21929 2796206 3494280 171916.44718454955 195862.528515544054 610 1976 2558 1381237 3144800297
30	126443971 9974 3495627 3718827 195941.841999902148 204873.538113547916 278 2559 2825 748724 2018152532
vector 31  SimphonyDHTNetwork.members[214]  ""  ETV
31	993018 37120 108 695678 102516.874488236908 118990.402521914149 1100 0 1039 575281 400036003
31	24979181 36664 709116 1396663 119232.831043568086 135109.233058415031 1036 1040 2012 1582479 2499237977
31	50255851 34850 1398196 2090855 135135.996449432093 152936.382668098393 971 2013 2928 2397789 5988354831
31	75582505 16202 2099439 2796204 153140.509090411841 171916.34718454955 451 2929 3358 1418151 4466300211
31	101008815 40712 2796208 3494281 171916.54718454955 195862.628515544054 1133 3359 4422 4411121 17280724569
31	126453945 20570 3495628 3718828 195941.841999902148 204873.538113547916 574 4423 4962 2694162 12659385964
vector 32  SimphonyDHTNetwork.members[215]  ""  ETV
32	1030138 31088 109 696512 102516.874488236908 119005.902521914149 921 0 876 404691 236606711
32	25015845 35821 699961 1393936 119060.764941820436 135038.382593729676 1017 877 1841 1383359 1960333111
32	50290701 58469 1406048 2096825 135355.558778164986 153071.702490866788 1632 1842 3369 4258111 11427204315
32	75598707 14107 2099440 2796197 153140.509090411841 171916.34718454955 393 3370 3748 1399115 4985663941
32	101049527 41823 2796266 3494159 171918.04718454955 195859.028515544054 1164 3749 4838 4999701 21589467843
32	126474515 15765 3495549 3719720 195940.641999902148 204887.738113547916 439 4839 5250 2214971 11181855599
vector 33  SimphonyDHTNetwork.members[231]  ""  ETV
33	1061226 28767 110 698983 102516.874488236908 119043.030471543939 857 0 814 349904 190025872
33	25051666 20313 702619 1396665 119103.930471543939 135109.233058415031 581 815 1375 636551 712551279
33	50349170 17857 1398130 2090857 135135.096449432093 152936.382668098393 498 1376 1863 806979 1317484605
33	75612814 22603 2103866 2792356 153225.236068766298 171791.311904264438 629 1864 2476 1367254 2991929642
33	101091350 9395 2810119 3489986 172450.166092791544 195665.951617795745 261 2477 2720 678753 1766437005
33	126490280 1988 3500396 3713121 196022.435917680961 204662.198819520809 56 2721 2774 153905 422991195
vector 34  SimphonyDHTNetwork.members[212]  ""  ETV
34	1089993 30433 122 699028 102517.174488236908 119043.630471543939 905 0 858 389003 222972609
34	25071979 25579 702700 1397177 119105.130471543939 135118.233058415031 726 859 1537 870046 1070583014
34	50367027 44153 1398194 2092151 135135.996449432093 152951.682668098393 1230 1538 2684 2598215 5623702841
34	75635417 53396 2116130 2791292 153554.927935447107 171772.911904264438 1487 2685 4059 5017845 17165702737
34	101100745 7439 2796232 3495125 171917.04718454955 195930.341999902148 207 4060 4250 859964 3573289904
34	126492268 3908 3500392 3687368 196022.435917680961 203728.082841021578 109 4251 4352 468961 2017749549
vector 35  SimphonyDHTNetwork.members[203]  ""  ETV
35	1120426 27427 127 695703 102517.474488236908 118991.002521914149 816 0 776 317154 164234700
35	25097558 9951 709155 1396698 119233.431043568086 135110.433058415031 287 777 1060 263965 244729259
35	50411180 18502 1398233 2090917 135136.596449432093 152936.982668098393 515 1061 1558 675747 897281615
35	75688813 10116 2099619 2569742 153142.309090411841 165357.825789588757 281 1559 1817 475410 805896576
35	101108184 1944 2815101 3465340 172618.533395233581 194685.272053712978 54 1818 1865 99444 183141996
35	126496176 861 3532008 3686235 197130.179855217118 203658.830064057719 24 1866 1887 45043 84537271
vector 36  SimphonyDHTNetwork.members[204]  ""  ETV
36	1147853 37114 128 695672 102517.474488236908 118990.402521914149 1100 0 1033 573503 397255667
36	25107509 8134 712043 1393929 119281.659101187219 135038.382593729676 230 1034 1263 264155 304395915
36	50429682 7938 1406089 2020809 135356.458778164986 151217.334547591267 221 1264 1472 303105 416526871
36	75698929 1548 2343891 2569746 159476.109950897472 165357.825789588757 43 1473 1510 64144 95690182
36	101110128 1944 2815055 3465344 172617.333395233581 194685.272053712978 54 1511 1558 82866 127172826
36	126497037 639 3596873 3685192 199843.26652134607 203636.530064057719 18 1559 1574 28198 44174110
vector 37  SimphonyDHTNetwork.members[205]  ""  ETV
37	1184967 33059 129 696502 102517.474488236908 119005.802521914149 979 0 929 457144 284031492
37	25115643 60930 699998 1394981 119061.364941820436 135054.582593729676 1725 930 2539 2996034 5576546158
37	50437620 77419 1406073 2096844 135356.158778164986 153072.302490866788 2159 2540 4548 7653631 27857893869
37	75700477 24220 2099502 2796175 153141.109090411841 171915.94718454955 674 4549 5186 3281524 15999673252
37	101112072 77919 2796217 3494207 171916.74718454955 195860.328515544054 2168 5187 7202 13433686 83974062892
37	126497676 34445 3495588 3719717 195941.241999902148 204887.638113547916 960 7203 8094 7344285 56249577835
vector 38  SimphonyDHTNetwork.members[221]  ""  ETV
38	1218026 28191 130 699025 102517.474488236908 119043.630471543939 840 0 798 336252 179059670
38	25176573 20330 702659 1396684 119104.530471543939 135109.833058415031 582 799 1360 628632 694219330
38	50515039 17820 1398170 2090919 135135.696449432093 152936.982668098393 497 1361 1848 797658 1289969870
38	75724697 24464 2103905 2792355 153225.836068766298 171791.211904264438 681 1849 2515 1488538 3279179846
38	101189991 10795 2796243 3494266 171917.34718454955 195861.928515544054 300 2516 2801 798182 2125681874
38	126532121 3461 3500378 3713140 196022.135917680961 204662.798819520809 97 2802 2895 276392 787623772
vector 39  SimphonyDHTNetwork.members[202]  ""  ETV
39	1246217 30499 142 694527 102517.774488236908 118972.830471543939 907 0 862 391032 224862822
39	25196903 27413 699066 1397168 119044.230471543939 135118.133058415031 777 863 1593 955000 1208421796
39	50532859 47502 1398232 2092144 135136.596449432093 152951.582668098393 1323 1594 2826 2928018 6647900838
39	75749161 20516 2116172 2572608 153555.527935447107 165410.825789588757 570 2827 3350 1762610 5463617730
39	101200786 2124 2815142 3465337 172619.433395233581 194685.272053712978 59 3350 3402 199196 672539956
39	126535582 639 3551550 3686232 198128.02245838843 203658.830064057719 18 3403 3418 61390 209374382
vector 40  SimphonyDHTNetwork.members[193]  ""  ETV
40	1276716 29821 147 695727 102518.074488236908 118991.602521914149 887 0 847 375127 211746183
40	25224316 12063 709193 1396729 119234.031043568086 135111.033058415031 345 848 1183 350544 359447912
40	50580361 17768 1398271 2091032 135137.196449432093 152938.182668098393 495 1184 1666 705924 1016262222
40	75769677 15495 2099679 2791332 153142.909090411841 171773.511904264438 432 1667 2078 809658 1523559796
40	101202910 8268 2796354 3492361 171921.34718454955 195824.928515544054 230 2079 2304 504175 1106161707
40	126536221 4809 3495697 3718881 195943.041999902148 204874.738113547916 134 2305 2436 317640 753141656
vector 41  SimphonyDHTNetwork.members[194]  ""  ETV
41	1306537 36523 148 695728 102518.074488236908 118991.602521914149 1083 0 1026 557858 382168710
41	25236379 17142 709194 1396701 119234.031043568086 135110.433058415031 485 1027 1505 613668 785734758
41	50598129 19691 1398272 2090976 135137.196449432093 152937.582668098393 549 1506 2054 977220 1753240650
41	75785172 6999 2099596 2765343 153142.009090411841 170955.895901589559 195 2055 2245 419484 902988324
41	101211178 17865 2798046 3492362 172017.014679535688 195824.928515544054 497 2246 2737 1238489 3096221911
41	126541030 8005 3495648 3718882 195942.141999902148 204874.738113547916 223 2738 2958 635068 1809473042
vector 42  SimphonyDHTNetwork.members[195]  ""  ETV
42	1343060 32652 149 696499 102518.074488236908 119005.702521914149 967 0 917 445190 273035404
42	25253521 58562 700037 1394979 119061.964941820436 135054.482593729676 1659 918 2457 2802339 5061941333
42	50617820 69920 1406097 2096863 135356.758778164986 153072.902490866788 1950 2458 4265 6555973 22573260579
42	75792171 21082 2099559 2765631 153141.709090411841 170964.595901589559 587 4266 4819 2667255 12134693533
42	101229043 64908 2798032 3493044 172016.714679535688 195844.828515544054 1806 4820 6479 10205023 58079156381
42	126549035 28536 3495624 3719715 195941.841999902148 204887.538113547916 795 6480 7208 5441767 37284021963
vector 43  SimphonyDHTNetwork.members[211]  ""  ETV
43	1375712 28361 150 699027 102518.074488236908 119043.630471543939 845 0 803 340265 182279089
43	25312083 21236 699063 1396703 119044.230471543939 135110.433058415031 608 804 1389 666954 748888040
43	50687740 18899 1398212 2090978 135136.296449432093 152937.582668098393 527 1390 1906 868519 1442966251
43	75813253 49197 2103931 2792354 153226.436068766298 171791.111904264438 1371 1907 3190 3501262 9128277546
43	101293951 14531 2796256 3494320 171917.64718454955 195864.428515544054 405 3191 3568 1368759 4630800421
43	126577571 6760 3500445 3713160 196023.135917680961 204663.398819520809 189 3569 3747 691549 2530869519